
40608 atoms

2 atom types

-50.654851 50.656058 xlo xhi
-50.656335 50.655424 ylo yhi
0.000000 150.691278 zlo zhi

Masses

1 91.224000
2 15.999400

Atoms

1 1 1 0.0 22.182486 33.681948 134.339354
2 1 1 0.0 24.870329 31.240295 135.616199
3 1 2 0.0 24.682773 31.794649 135.774995
4 1 2 0.0 24.831898 30.586543 135.611791
5 1 2 0.0 23.971769 31.816977 133.076135
6 1 2 0.0 21.377664 33.924407 134.907552
7 1 1 0.0 25.971199 30.202703 131.664555
8 1 1 0.0 27.533749 27.357903 133.553296
9 1 2 0.0 27.856634 28.004303 133.356995
10 1 2 0.0 27.053489 26.616657 133.855877
11 1 2 0.0 26.756894 28.204703 131.109861
12 1 2 0.0 24.440398 30.156988 132.745288
13 1 1 0.0 28.545989 26.723457 129.846776
14 1 1 0.0 29.239347 23.540985 132.168185
15 1 2 0.0 29.930141 24.289176 131.717649
16 1 2 0.0 28.431106 22.704464 132.697191
17 1 2 0.0 28.608137 24.592429 129.802900
18 1 2 0.0 26.511302 26.389570 131.283247
19 1 1 0.0 30.218764 23.244212 128.665811
20 1 1 0.0 30.183784 19.776099 131.321701
21 1 2 0.0 31.162666 20.631537 130.673415
22 1 2 0.0 29.114836 18.839704 132.029527
23 1 2 0.0 29.700641 20.980156 129.031601
24 1 2 0.0 27.812815 22.622151 130.364390
25 1 1 0.0 31.135249 19.764966 128.018780
26 1 1 0.0 30.460671 16.056846 130.947601
27 1 2 0.0 31.677040 17.022990 130.137373
28 1 2 0.0 29.174868 15.017579 131.803215
29 1 2 0.0 30.117089 17.367882 128.737592
30 1 2 0.0 28.450724 18.854733 129.914032
31 1 1 0.0 31.361818 16.285721 127.858824
32 1 1 0.0 30.106383 12.380739 131.020146
33 1 2 0.0 31.526880 13.459869 130.071580
34 1 2 0.0 28.632786 11.236613 132.002983
35 1 2 0.0 29.885757 13.755608 128.900911
36 1 2 0.0 28.469672 15.087314 129.900655
37 1 1 0.0 30.913644 12.806475 128.175231
38 1 1 0.0 29.114081 8.748246 131.544175
39 1 2 0.0 30.718387 9.941750 130.471650
40 1 2 0.0 27.469593 7.498105 132.642274
41 1 2 0.0 28.991143 10.143335 129.532501
42 1 2 0.0 27.870921 11.319896 130.323368
43 1 1 0.0 29.760258 9.327229 128.989512
44 1 1 0.0 27.431227 5.162957 132.556864
45 1 2 0.0 29.212596 6.471298 131.365155
46 1 2 0.0 25.618682 3.806609 133.768220
47 1 2 0.0 27.368279 6.531061 130.678229
48 1 2 0.0 26.612812 7.552477 131.211582
49 1 1 0.0 27.814069 5.847984 130.363504
50 1 1 0.0 24.938136 1.633055 134.142909
51 1 2 0.0 26.910308 3.055293 132.822292
52 1 2 0.0 22.936641 0.171927 135.482307
53 1 2 0.0 24.875037 2.918787 132.438437
54 1 2 0.0 24.594365 3.785059 132.636589
55 1 1 0.0 24.889793 2.368738 132.428019
56 1 1 0.0 21.381801 -1.824165 136.481347
57 1 2 0.0 23.603189 -0.292024 134.990487
58 1 2 0.0 19.112295 -3.384669 138.004733
59 1 2 0.0 21.206618 -0.693486 135.028309
60 1 2 0.0 21.603501 0.017640 134.748112
61 1 1 0.0 19.296707 35.617401 136.376690
62 1 1 0.0 21.826369 32.987535 137.844332
63 1 2 0.0 21.813220 33.765560 137.891053
64 1 2 0.0 21.632918 32.134498 137.939516
65 1 2 0.0 20.724103 33.354531 135.368960
66 1 2 0.0 18.320403 35.455422 137.065952
67 1 1 0.0 22.592535 31.737986 134.049863
68 1 1 0.0 24.060010 28.779597 136.068468
69 1 2 0.0 24.505009 29.625857 135.795780
70 1 2 0.0 23.471472 27.861031 136.438776
71 1 2 0.0 23.131903 29.371062 133.669074
72 1 2 0.0 20.945130 31.350104 135.212917
73 1 1 0.0 24.832364 27.858571 132.468563
74 1 1 0.0 25.469103 24.628023 134.876086
75 1 2 0.0 26.243306 25.551334 134.375234
76 1 2 0.0 24.588700 23.636872 135.448474
77 1 2 0.0 24.732341 25.387594 132.539178
78 1 2 0.0 22.719869 27.244786 133.959966
79 1 1 0.0 26.287523 23.979155 131.441233
80 1 1 0.0 26.222947 20.521241 134.147385
81 1 2 0.0 27.252864 21.526626 133.470372
82 1 2 0.0 25.112879 19.453253 134.877837
83 1 2 0.0 25.676834 21.404125 131.872375
84 1 2 0.0 23.835250 23.139468 133.172517
85 1 1 0.0 27.084780 20.099740 130.878376
86 1 1 0.0 26.402125 16.453742 133.825339
87 1 2 0.0 27.640122 17.544457 133.005874
88 1 2 0.0 25.103998 15.306073 134.684413
89 1 2 0.0 26.036862 17.420657 131.618198
90 1 2 0.0 24.381931 19.034151 132.786565
91 1 1 0.0 27.281874 16.220324 130.739230
92 1 1 0.0 26.037952 12.423385 133.887790
93 1 2 0.0 27.451541 13.601652 132.948863
94 1 2 0.0 24.580504 11.194071 134.855150
95 1 2 0.0 25.836871 13.437188 131.759390
96 1 2 0.0 24.398169 14.928833 132.775101
97 1 1 0.0 26.892004 12.340909 131.014475
98 1 1 0.0 25.124541 8.430574 134.338903
99 1 2 0.0 26.692493 9.697843 133.295536
100 1 2 0.0 23.526160 7.118357 135.401538
101 1 2 0.0 25.063458 9.453720 132.305413
102 1 2 0.0 23.885047 10.823515 133.137361
103 1 1 0.0 25.888666 8.461493 131.722823
104 1 1 0.0 23.616663 4.478399 135.210683
105 1 2 0.0 25.329213 5.835338 134.069786
106 1 2 0.0 21.884040 3.082823 136.363858
107 1 2 0.0 23.660457 5.470252 133.295919
108 1 2 0.0 22.806862 6.718198 133.898550
109 1 1 0.0 24.195662 4.582078 132.918069
110 1 1 0.0 21.411288 0.573904 136.576040
111 1 2 0.0 23.275744 2.020014 135.332442
112 1 2 0.0 19.531571 -0.904154 137.828849
113 1 2 0.0 21.504997 1.486783 134.817656
114 1 2 0.0 21.077077 2.612880 135.119764
115 1 1 0.0 21.651813 0.702662 134.714005
116 1 1 0.0 18.290612 -3.268022 138.589100
117 1 2 0.0 20.351557 -1.735790 137.211252
118 1 2 0.0 16.202801 -4.824392 139.984709
119 1 2 0.0 18.333571 -2.496685 137.056655
120 1 2 0.0 18.513943 -1.492438 136.929314
121 1 1 0.0 16.410927 37.136149 138.414026
122 1 1 0.0 18.760017 34.407214 140.072464
123 1 2 0.0 18.917795 35.357981 140.007112
124 1 2 0.0 18.414516 33.398326 140.267241
125 1 2 0.0 17.476437 34.563151 137.661785
126 1 2 0.0 15.263142 36.658418 139.224352
127 1 1 0.0 19.213872 32.942721 136.435170
128 1 1 0.0 20.569043 29.949264 138.583640
129 1 2 0.0 21.133084 30.950455 138.234564
130 1 2 0.0 19.874851 28.891763 139.021676
131 1 2 0.0 19.506911 30.287898 136.228287
132 1 2 0.0 17.449861 32.287595 137.680547
133 1 1 0.0 21.118739 28.749293 135.090350
134 1 1 0.0 21.686795 25.538568 137.583987
135 1 2 0.0 22.541744 26.598068 137.032819
136 1 2 0.0 20.736509 24.426124 138.199757
137 1 2 0.0 20.856545 26.012646 135.275457
138 1 2 0.0 18.928437 27.916773 136.636685
139 1 1 0.0 22.356282 24.555864 134.216655
140 1 1 0.0 22.255208 21.165424 136.973069
141 1 2 0.0 23.333910 22.287824 136.267328
142 1 2 0.0 21.105955 19.994132 137.726147
143 1 2 0.0 21.653027 21.737394 134.713148
144 1 2 0.0 19.857686 23.545951 135.980643
145 1 1 0.0 23.034312 20.362436 133.737973
146 1 1 0.0 22.341841 16.825214 136.703076
147 1 2 0.0 23.599625 18.013567 135.874375
148 1 2 0.0 21.032979 15.592383 137.565612
149 1 2 0.0 21.956635 17.462141 134.498803
150 1 2 0.0 20.313138 19.175129 135.659098
151 1 1 0.0 23.201931 16.169008 133.619635
152 1 1 0.0 21.972947 12.516143 136.755433
153 1 2 0.0 23.378196 13.772610 135.826145
154 1 2 0.0 20.532891 11.219831 137.707318
155 1 2 0.0 21.787985 13.186889 134.617869
156 1 2 0.0 20.326667 14.804306 135.649547
157 1 1 0.0 22.870365 11.975579 133.853718
158 1 1 0.0 21.143590 8.238548 137.133631
159 1 2 0.0 22.674166 9.564643 136.119422
160 1 2 0.0 19.592215 6.877397 138.160802
161 1 2 0.0 21.135773 8.911637 135.078325
162 1 2 0.0 19.899173 10.433484 135.951354
163 1 1 0.0 22.017074 7.782151 134.456134
164 1 1 0.0 19.815852 3.995022 137.864502
165 1 2 0.0 21.458972 5.391618 136.774418
166 1 2 0.0 18.163703 2.568310 138.959496
167 1 2 0.0 19.952636 4.636384 135.913609
168 1 2 0.0 19.000913 6.062662 136.585518
169 1 1 0.0 20.577255 3.588723 135.472634
170 1 1 0.0 17.903356 -0.208531 139.009171
171 1 2 0.0 19.659895 1.258507 137.842592
172 1 2 0.0 16.145625 -1.700474 140.175391
173 1 2 0.0 18.134957 0.361132 137.196875
174 1 2 0.0 17.559790 1.691840 137.602939
175 1 1 0.0 18.413832 -0.604705 136.999992
176 1 1 0.0 15.223503 -4.359629 140.696853
177 1 2 0.0 17.124213 -2.824251 139.432017
178 1 2 0.0 13.317249 -5.913869 141.964685
179 1 2 0.0 15.460524 -3.914120 139.085002
180 1 2 0.0 15.424385 -2.678983 139.110516
181 1 1 0.0 13.525148 38.326795 140.451361
182 1 1 0.0 15.675399 35.559670 142.300597
183 1 2 0.0 16.001698 36.648002 142.123170
184 1 2 0.0 15.179971 34.426002 142.594966
185 1 2 0.0 14.228770 35.506888 139.954610
186 1 2 0.0 12.205881 37.590563 141.382752
187 1 1 0.0 15.835209 33.887191 138.820478
188 1 1 0.0 17.064021 30.913329 141.098812
189 1 2 0.0 17.744941 32.037793 140.673348
190 1 2 0.0 16.266091 29.744927 141.604575
191 1 2 0.0 15.881919 31.003800 138.787501
192 1 2 0.0 13.954593 33.014013 140.148177
193 1 1 0.0 17.405115 29.447588 137.712138
194 1 1 0.0 17.894645 26.305132 140.291888
195 1 2 0.0 18.828417 27.472685 139.690403
196 1 2 0.0 16.876184 25.096393 140.951040
197 1 2 0.0 16.980749 26.500711 138.011736
198 1 2 0.0 15.137004 28.437464 139.313404
199 1 1 0.0 18.425042 25.007984 136.992078
200 1 1 0.0 18.281839 21.727247 139.798752
201 1 2 0.0 19.407643 22.942047 139.064285
202 1 2 0.0 17.094903 20.474612 140.574457
203 1 2 0.0 17.629220 21.997623 137.553921
204 1 2 0.0 15.880122 23.860915 138.788770
205 1 1 0.0 18.983843 20.568381 136.597569
206 1 1 0.0 18.280139 17.175946 139.580814
207 1 2 0.0 19.556269 18.440843 138.742877
208 1 2 0.0 16.961836 15.876879 140.446810
209 1 2 0.0 17.876408 17.494534 137.379408
210 1 2 0.0 16.244345 19.284366 138.531631
211 1 1 0.0 19.121987 16.128777 136.500040
212 1 1 0.0 17.910736 12.649781 139.623076
213 1 2 0.0 19.306444 13.966877 138.703428
214 1 2 0.0 16.489159 11.302361 140.559485
215 1 2 0.0 17.739098 12.991446 137.476348
216 1 2 0.0 16.255164 14.707817 138.523993
217 1 1 0.0 18.848726 11.689174 136.692961
218 1 1 0.0 17.169645 8.149023 139.928359
219 1 2 0.0 18.661886 9.519894 138.943308
220 1 2 0.0 15.666154 6.751791 140.920065
221 1 2 0.0 17.208088 8.488357 137.851237
222 1 2 0.0 15.913299 10.131267 138.765347
223 1 1 0.0 18.145481 7.249570 137.189445
224 1 1 0.0 16.026260 3.675766 140.518321
225 1 2 0.0 17.599230 5.101492 139.479049
226 1 2 0.0 14.455256 2.227736 141.555134
227 1 2 0.0 16.244815 3.985268 138.531300
228 1 2 0.0 15.194963 5.554718 139.272486
229 1 1 0.0 16.958847 2.809967 138.027199
230 1 1 0.0 14.410856 -0.765225 141.442303
231 1 2 0.0 16.058999 0.715736 140.352742
232 1 2 0.0 12.775574 -2.264273 142.521933
233 1 2 0.0 14.764917 -0.517820 139.576095
234 1 2 0.0 14.042502 0.978169 140.086113
235 1 1 0.0 15.175852 -1.629637 139.285978
236 1 1 0.0 12.176037 -5.163873 142.804605
237 1 2 0.0 13.916275 -3.628834 141.652782
238 1 2 0.0 10.451597 -6.712239 143.944661
239 1 2 0.0 12.587477 -5.020909 141.113349
240 1 2 0.0 12.334826 -3.598380 141.291718
241 1 1 0.0 10.639368 39.241749 142.488697
242 1 1 0.0 12.575039 36.481852 144.528729
243 1 2 0.0 13.068052 37.681308 144.239228
244 1 2 0.0 11.931322 35.247358 144.922691
245 1 2 0.0 10.981104 36.224498 142.247434
246 1 2 0.0 9.148620 38.287225 143.541152
247 1 1 0.0 12.456545 34.612972 141.205785
248 1 1 0.0 13.546888 31.700221 143.613984
249 1 2 0.0 14.343029 32.923717 143.112132
250 1 2 0.0 12.646727 30.442955 144.187475
251 1 2 0.0 12.256927 31.548165 141.346714
252 1 2 0.0 10.459324 33.556920 142.615806
253 1 1 0.0 13.691490 29.984195 140.333925
254 1 1 0.0 14.094012 26.947623 142.999789
255 1 2 0.0 15.105101 28.201188 142.347988
256 1 2 0.0 13.008753 25.662709 143.702323
257 1 2 0.0 13.104954 26.871832 140.748015
258 1 2 0.0 11.345572 28.826616 141.990123
259 1 1 0.0 14.493801 25.355417 139.767500
260 1 1 0.0 14.303619 22.218097 142.624436
261 1 2 0.0 15.475168 23.505456 141.861242
262 1 2 0.0 13.080243 20.902323 143.422767
263 1 2 0.0 13.605413 22.195499 140.394695
264 1 2 0.0 11.902557 24.096311 141.596896
265 1 1 0.0 14.827086 11.469085 139.532204
266 1 1 0.0 13.201739 8.147827 142.723087
267 1 2 0.0 14.654738 9.550234 141.767194
268 1 2 0.0 11.746984 6.726966 143.679329
269 1 2 0.0 13.280403 8.166499 140.624149
270 1 2 0.0 11.927424 9.905398 141.579340
271 1 1 0.0 14.273889 6.840307 139.922756
272 1 1 0.0 12.246336 3.497939 143.172140
273 1 2 0.0 13.748401 4.941755 142.183681
274 1 2 0.0 10.757198 2.039127 144.150772
275 1 2 0.0 12.536993 3.490166 141.148990
276 1 2 0.0 11.389014 5.175093 141.959454
277 1 1 0.0 13.340440 2.211530 140.581763
278 1 1 0.0 10.931653 -1.127389 143.875434
279 1 2 0.0 12.470795 0.358655 142.862892
280 1 2 0.0 9.419410 -2.624922 144.868475
281 1 2 0.0 11.394877 -1.186168 141.955314
282 1 2 0.0 10.525214 0.444789 142.569288
283 1 1 0.0 11.937871 -2.417247 141.571965
284 1 1 0.0 9.145499 -5.720488 144.912358
285 1 2 0.0 10.724810 -4.192428 143.873547
286 1 2 0.0 7.603330 -7.256277 145.924636
287 1 2 0.0 9.714430 -5.862501 143.141695
288 1 2 0.0 9.245268 -4.285516 143.472920
289 1 1 0.0 7.753589 39.913852 144.526033
290 1 1 0.0 9.460541 37.197194 146.756861
291 1 2 0.0 10.118827 38.486697 146.355286
292 1 2 0.0 8.669865 35.881346 147.250416
293 1 2 0.0 7.733438 36.740476 144.540259
294 1 2 0.0 6.091359 38.770872 145.699553
295 1 1 0.0 9.077882 35.146112 143.591093
296 1 1 0.0 10.018876 32.327969 146.129156
297 1 2 0.0 10.928894 33.630822 145.550916
298 1 2 0.0 9.017732 31.000097 146.770374
299 1 2 0.0 8.631936 31.939576 143.905927
300 1 2 0.0 6.964056 33.933825 145.083436
301 1 1 0.0 9.977865 30.378372 142.955712
302 1 1 0.0 10.285762 27.478667 145.707691
303 1 2 0.0 11.372918 28.799969 145.005573
304 1 2 0.0 9.134869 26.134621 146.453606
305 1 2 0.0 9.229158 27.138676 143.484293
306 1 2 0.0 7.554140 29.096778 144.666842
307 1 1 0.0 10.562561 25.610633 142.542922
308 1 1 0.0 10.321041 22.645196 145.450120
309 1 2 0.0 11.537182 23.988240 144.658199
310 1 2 0.0 9.062307 21.282112 146.271077
311 1 2 0.0 9.581606 22.337776 143.235468
312 1 2 0.0 7.924993 24.259732 144.405022
313 1 1 0.0 10.805447 11.307413 142.371447
314 1 1 0.0 9.239256 8.225970 145.517815
315 1 2 0.0 10.652148 9.647239 144.591080
316 1 2 0.0 7.834069 6.793665 146.438593
317 1 2 0.0 9.352718 7.935076 143.397061
318 1 2 0.0 7.941550 9.748592 144.393333
319 1 1 0.0 10.402297 6.539673 142.656067
320 1 1 0.0 8.475096 3.447148 145.825959
321 1 2 0.0 9.905486 4.897779 144.888312
322 1 2 0.0 7.068573 1.988523 146.746410
323 1 2 0.0 8.829172 3.134176 143.766680
324 1 2 0.0 7.583064 4.911545 144.646422
325 1 1 0.0 9.722032 1.771933 143.136328
326 1 1 0.0 7.464394 -1.314821 146.308565
327 1 2 0.0 8.893861 0.166432 145.373042
328 1 2 0.0 6.075857 -2.801085 147.215017
329 1 2 0.0 8.024837 -1.666725 144.334534
330 1 2 0.0 7.007927 0.074498 145.052463
331 1 1 0.0 8.699891 -2.995807 143.857951
332 1 1 0.0 6.130166 -6.054674 147.020111
333 1 2 0.0 7.547971 -4.542065 146.094312
334 1 2 0.0 4.770852 -7.569347 147.904612
335 1 2 0.0 6.841383 -6.467625 145.170042
336 1 2 0.0 6.155709 -4.762549 145.654122
337 1 1 0.0 4.867809 40.363941 146.563368
338 1 1 0.0 6.332905 37.720366 148.984994
339 1 2 0.0 7.155266 39.082382 148.471344
340 1 2 0.0 5.396398 36.339632 149.578141
341 1 2 0.0 4.485771 37.070266 146.833084
342 1 2 0.0 3.034098 39.055429 147.857953
343 1 1 0.0 5.699218 35.503142 145.976400
344 1 1 0.0 6.480757 32.807861 148.644328
345 1 2 0.0 7.503511 34.173396 147.989701
346 1 2 0.0 5.379706 31.425125 149.353274
347 1 2 0.0 5.006944 32.189748 146.465140
348 1 2 0.0 3.468787 34.155580 147.551066
349 1 1 0.0 6.264240 30.642343 145.577500
350 1 1 0.0 6.470434 27.906168 148.415592
351 1 2 0.0 7.632576 29.279393 147.663157
352 1 2 0.0 5.254933 26.518006 149.204890
353 1 2 0.0 5.353362 27.309231 146.220572
354 1 2 0.0 3.762707 29.255731 147.343561
355 1 1 0.0 6.631320 25.781543 145.318345
356 1 1 0.0 6.334414 23.013067 148.275804
357 1 2 0.0 7.594125 24.396841 147.455155
358 1 2 0.0 5.041299 21.616962 149.119387
359 1 2 0.0 5.557799 22.428713 146.076241
360 1 2 0.0 3.947429 24.355881 147.213149
361 1 1 0.0 6.783807 11.199146 145.210690
362 1 1 0.0 5.281812 8.377825 148.312543
363 1 2 0.0 6.653750 9.805582 147.414966
364 1 2 0.0 3.927021 6.946189 149.197857
365 1 2 0.0 5.425033 7.787160 146.169973
366 1 2 0.0 3.955676 9.656333 147.207327
367 1 1 0.0 6.530704 6.338346 145.389379
368 1 1 0.0 4.711924 3.514383 148.479778
369 1 2 0.0 6.069851 4.960316 147.592944
370 1 2 0.0 3.388794 2.067333 149.342048
371 1 2 0.0 5.121351 2.906643 146.384370
372 1 2 0.0 3.777114 4.756484 147.333389
373 1 1 0.0 6.103625 1.477547 145.690893
374 1 1 0.0 4.008233 -1.339912 148.741696
375 1 2 0.0 5.327297 0.125895 147.883192
376 1 2 0.0 2.744130 -2.804246 149.561559
377 1 2 0.0 4.654797 -1.973875 146.713753
378 1 2 0.0 3.490639 -0.143365 147.535638
379 1 1 0.0 5.461911 -3.383252 146.143938
380 1 1 0.0 3.128959 -6.182205 149.127864
381 1 2 0.0 4.384589 -4.694843 148.315077
382 1 2 0.0 1.953180 -7.665826 149.884588
383 1 2 0.0 3.968336 -6.854393 147.198389
384 1 2 0.0 3.066151 -5.043215 147.835324
385 1 1 0.0 1.982029 40.604641 148.600704
386 1 1 0.0 3.192704 38.059710 1.213126
387 1 2 0.0 4.178110 39.479178 0.587403
388 1 2 0.0 2.111345 36.628434 1.905866
389 1 2 0.0 1.238105 37.222914 149.125909
390 1 2 0.0 -0.023163 39.148522 0.016353
391 1 1 0.0 2.320555 35.694075 148.361708
392 1 1 0.0 2.932969 33.146315 1.159500
393 1 2 0.0 4.067462 34.559925 0.428485
394 1 2 0.0 1.732969 31.722714 1.936174
395 1 2 0.0 1.381952 32.305544 149.024353
396 1 2 0.0 -0.026481 34.228127 0.018696
397 1 1 0.0 2.550615 30.783509 148.199287
398 1 1 0.0 2.648335 28.234621 1.123493
399 1 2 0.0 3.884496 29.645615 0.320742
400 1 2 0.0 1.369160 26.815999 1.956173
401 1 2 0.0 1.477566 27.388174 148.956851
402 1 2 0.0 -0.028725 29.307732 0.020280
403 1 1 0.0 2.700080 25.872944 148.093767
404 1 1 0.0 2.343914 23.324280 1.101488
405 1 2 0.0 3.646258 24.735084 0.252112
406 1 2 0.0 1.017328 21.908465 1.967697
407 1 2 0.0 1.533992 22.470805 148.917015
408 1 2 0.0 -0.030135 24.387336 0.021275
409 1 1 0.0 2.762168 11.141246 148.049933
410 1 1 0.0 1.329189 8.600193 1.107271
411 1 2 0.0 2.659330 10.022099 0.238851
412 1 2 0.0 0.025633 7.181501 1.957121
413 1 2 0.0 1.497348 7.718695 148.942885
414 1 2 0.0 -0.030198 9.626151 0.021320
415 1 1 0.0 2.659112 6.230680 148.122690
416 1 1 0.0 0.956469 3.694521 1.133597
417 1 2 0.0 2.241122 5.123871 0.297575
418 1 2 0.0 -0.282451 2.270977 1.937687
419 1 2 0.0 1.413529 2.801326 149.002060
420 1 2 0.0 -0.028835 4.705756 0.020357
421 1 1 0.0 2.485218 1.320114 148.245458
422 1 1 0.0 0.562687 -1.209711 1.174827
423 1 2 0.0 1.770566 0.229220 0.393342
424 1 2 0.0 -0.576189 -2.640528 1.908101
425 1 2 0.0 1.284757 -2.116044 149.092972
426 1 2 0.0 -0.026648 -0.214639 0.018813
427 1 1 0.0 2.223930 -3.590451 148.429924
428 1 1 0.0 0.141266 -6.112054 1.235616
429 1 2 0.0 1.233969 -4.660915 0.535843
430 1 2 0.0 -0.850211 -7.553381 1.864564
431 1 2 0.0 1.095289 -7.033414 149.226735
432 1 2 0.0 -0.023408 -5.135034 0.016526
433 1 1 0.0 -0.903750 40.642309 0.638040
434 1 1 0.0 0.040157 38.218451 3.441259
435 1 2 0.0 1.187702 39.682128 2.703461
436 1 2 0.0 -1.185181 36.749404 4.233591
437 1 2 0.0 -2.009561 37.202407 1.418733
438 1 2 0.0 -3.080424 39.052558 2.174753
439 1 1 0.0 -1.058108 35.723955 0.747015
440 1 1 0.0 -0.624318 33.345812 3.674672
441 1 2 0.0 0.621016 34.794365 2.867269
442 1 2 0.0 -1.922395 31.894107 4.519073
443 1 2 0.0 -2.243039 32.289988 1.583567
444 1 2 0.0 -3.521750 34.153343 2.486325
445 1 1 0.0 -1.163009 30.805601 0.821075
446 1 1 0.0 -1.180416 28.465764 3.831394
447 1 2 0.0 0.128874 29.901507 2.978327
448 1 2 0.0 -2.522393 27.029430 4.707456
449 1 2 0.0 -2.398230 27.377569 1.693130
450 1 2 0.0 -3.820158 29.254127 2.696999
451 1 1 0.0 -1.231161 25.887247 0.869189
452 1 1 0.0 -1.650392 23.579830 3.927172
453 1 2 0.0 -0.306296 25.004754 3.049069
454 1 2 0.0 -3.009577 22.157042 4.816007
455 1 2 0.0 -2.489815 22.465150 1.757788
456 1 2 0.0 -4.007700 24.354911 2.829402
457 1 1 0.0 -1.259471 11.132185 0.889176
458 1 1 0.0 -2.618700 8.891837 3.901999
459 1 2 0.0 -1.331215 10.295316 3.062737
460 1 2 0.0 -3.870151 7.498795 4.716384
461 1 2 0.0 -2.430337 7.727893 1.715797
462 1 2 0.0 -4.016073 9.657264 2.835313
463 1 1 0.0 -1.212481 6.213831 0.856001
464 1 1 0.0 -2.791402 3.985582 3.787416
465 1 2 0.0 -1.580877 5.385882 3.002207
466 1 2 0.0 -3.945245 2.598237 4.533325
467 1 2 0.0 -2.294292 2.815474 1.619751
468 1 2 0.0 -3.834785 4.758048 2.707325
469 1 1 0.0 -1.133190 1.295477 0.800022
470 1 1 0.0 -2.872429 -0.926941 3.607958
471 1 2 0.0 -1.776580 0.472760 2.903493
472 1 2 0.0 -3.885212 -2.311558 4.254643
473 1 2 0.0 -2.085283 -2.096945 1.472192
474 1 2 0.0 -3.543936 -0.141167 2.501988
475 1 1 0.0 -1.014050 -3.622877 0.715911
476 1 1 0.0 -2.833151 -5.847687 3.343369
477 1 2 0.0 -1.904211 -4.445015 2.756608
478 1 2 0.0 -3.639459 -7.234049 3.844539
479 1 2 0.0 -1.777758 -7.009364 1.255082
480 1 2 0.0 -3.112966 -5.040383 2.197727
481 1 1 0.0 -3.789530 40.477917 2.675376
482 1 1 0.0 -3.124836 38.195129 5.669391
483 1 2 0.0 -1.815959 39.691194 4.819519
484 1 2 0.0 -4.493364 36.699847 6.561316
485 1 2 0.0 -5.257228 37.008216 3.711558
486 1 2 0.0 -6.137685 38.765055 4.333153
487 1 1 0.0 -4.436772 35.593553 3.132323
488 1 1 0.0 -4.191180 33.405229 6.189844
489 1 2 0.0 -2.835828 34.876688 5.306053
490 1 2 0.0 -5.586524 31.937277 7.101973
491 1 2 0.0 -5.868031 32.142679 4.142780
492 1 2 0.0 -7.017018 33.929292 4.953955
493 1 1 0.0 -4.876634 30.709188 3.442862
494 1 1 0.0 -5.015873 28.598811 6.539295
495 1 2 0.0 -3.634292 30.047047 5.635912
496 1 2 0.0 -6.419820 27.156943 7.458739
497 1 2 0.0 -6.274026 27.277141 4.429408
498 1 2 0.0 -7.611590 29.093529 5.373718
499 1 1 0.0 -5.162401 25.824823 3.644611
500 1 1 0.0 -5.648532 23.779265 6.752856
501 1 2 0.0 -4.263539 25.205838 5.846026
502 1 2 0.0 -7.039464 22.362004 7.664317
503 1 2 0.0 -6.513622 22.411603 4.598561
504 1 2 0.0 -7.985264 24.257766 5.637528
505 1 1 0.0 -5.281111 11.171729 3.728419
506 1 1 0.0 -6.561814 9.253316 6.696728
507 1 2 0.0 -5.317883 10.625243 5.886623
508 1 2 0.0 -7.760241 7.899386 7.475648
509 1 2 0.0 -6.358022 7.814990 4.488709
510 1 2 0.0 -8.001947 9.750477 5.649306
511 1 1 0.0 -5.084073 6.287364 3.589312
512 1 1 0.0 -6.531631 4.388460 6.441235
513 1 2 0.0 -5.396144 5.746370 5.706838
514 1 2 0.0 -7.599454 3.051098 7.128963
515 1 2 0.0 -6.002113 2.949452 4.237441
516 1 2 0.0 -7.640734 4.914714 5.394293
517 1 1 0.0 -4.751597 1.403000 3.354587
518 1 1 0.0 -6.297032 -0.490370 6.041089
519 1 2 0.0 -5.314139 0.856542 5.413643
520 1 2 0.0 -7.182757 -1.814683 6.601185
521 1 2 0.0 -5.455323 -1.916085 3.851411
522 1 2 0.0 -7.061223 0.078951 4.985163
523 1 1 0.0 -4.252030 -3.481365 3.001897
524 1 1 0.0 -5.794185 -5.387537 5.451122
525 1 2 0.0 -5.029949 -4.047108 4.977373
526 1 2 0.0 -6.414338 -6.704507 5.824515
527 1 2 0.0 -4.650805 -6.781623 3.283429
528 1 2 0.0 -6.202524 -4.756812 4.378929
529 1 1 0.0 -6.675309 40.107179 4.712711
530 1 1 0.0 -6.302707 37.983410 7.897524
531 1 2 0.0 -4.833223 39.501253 6.935577
532 1 2 0.0 -7.813710 36.472359 8.889041
533 1 2 0.0 -8.504894 36.635228 6.004383
534 1 2 0.0 -9.194946 38.278302 6.491553
535 1 1 0.0 -7.815435 35.299468 5.517630
536 1 1 0.0 -7.767951 33.319693 8.705016
537 1 2 0.0 -6.303346 34.802873 7.744837
538 1 2 0.0 -9.259799 31.846657 9.684872
539 1 2 0.0 -9.493023 31.859737 6.701993
540 1 2 0.0 -10.512287 33.549967 7.421585
541 1 1 0.0 -8.590259 30.491756 6.064649
542 1 1 0.0 -8.858269 28.630348 9.247196
543 1 2 0.0 -7.405201 30.079318 8.293496
544 1 2 0.0 -10.323375 27.194806 10.210022
545 1 2 0.0 -10.149821 27.084246 7.165687
546 1 2 0.0 -11.403022 28.821632 8.050437
547 1 1 0.0 -9.093642 25.684044 6.420034
548 1 1 0.0 -9.650643 23.920635 9.578540
549 1 2 0.0 -8.225594 25.336523 8.642982
550 1 2 0.0 -11.072461 22.521458 10.512627
551 1 2 0.0 -10.537428 22.308754 7.439334
552 1 2 0.0 -11.962828 24.093297 8.445655
553 1 1 0.0 -9.302750 11.260909 6.567662
554 1 1 0.0 -10.499988 9.687061 9.491456
555 1 2 0.0 -9.300572 11.013379 8.710509
556 1 2 0.0 -11.644390 8.386891 10.234912
557 1 2 0.0 -10.285707 7.982281 7.261621
558 1 2 0.0 -11.987821 9.908291 8.463299
559 1 1 0.0 -8.955665 6.453197 6.322623
560 1 1 0.0 -10.263949 4.907048 9.095054
561 1 2 0.0 -9.204502 6.207936 8.411470
562 1 2 0.0 -11.244704 3.635015 9.724601
563 1 2 0.0 -9.709935 3.206789 6.855131
564 1 2 0.0 -11.446684 5.179955 8.081261
565 1 1 0.0 -8.370005 1.645485 5.909152
566 1 1 0.0 -9.710755 0.105355 8.474221
567 1 2 0.0 -8.841858 1.384271 7.923793
568 1 2 0.0 -10.468326 -1.142611 8.947727
569 1 2 0.0 -8.825362 -1.568702 6.230631
570 1 2 0.0 -10.578511 0.451620 7.468338
571 1 1 0.0 -7.490011 -3.162227 5.287884
572 1 1 0.0 -8.741370 -4.724789 7.558875
573 1 2 0.0 -8.142916 -3.462383 7.198138
574 1 2 0.0 -9.174223 -5.955628 7.804491
575 1 2 0.0 -7.523852 -6.344193 5.311775
576 1 2 0.0 -9.292083 -4.276715 6.560131
577 1 1 0.0 -9.561089 39.519973 6.750047
578 1 1 0.0 -9.494284 37.571192 10.125656
579 1 2 0.0 -7.864838 39.101393 9.051636
580 1 2 0.0 -11.147120 36.053759 11.216766
581 1 2 0.0 -11.752561 36.073035 8.297207
582 1 2 0.0 -12.252207 37.578265 8.649953
583 1 1 0.0 -11.194098 34.833671 7.902938
584 1 1 0.0 -11.355267 33.079893 11.220188
585 1 2 0.0 -9.782123 34.564358 10.183621
586 1 2 0.0 -12.942897 31.612335 12.267772
587 1 2 0.0 -13.118015 31.433268 9.261206
588 1 2 0.0 -14.007555 33.004430 9.889215
589 1 1 0.0 -12.303884 30.147368 8.686437
590 1 1 0.0 -12.708050 28.553854 11.955098
591 1 2 0.0 -11.184277 29.992109 10.951081
592 1 2 0.0 -14.233512 27.136379 12.961305
593 1 2 0.0 -14.025617 26.793501 9.901966
594 1 2 0.0 -15.194455 28.430595 10.727155
595 1 1 0.0 -13.024883 25.461066 9.195456
596 1 1 0.0 -13.656977 24.000209 12.404224
597 1 2 0.0 -12.192726 25.392948 11.439939
598 1 2 0.0 -15.108800 22.632033 13.360937
599 1 2 0.0 -14.561235 22.153734 10.280108
600 1 2 0.0 -15.940393 23.856760 11.253781
601 1 1 0.0 -13.324390 11.402159 9.406905
602 1 1 0.0 -14.432905 10.197713 12.286184
603 1 2 0.0 -13.279064 11.462917 11.534395
604 1 2 0.0 -15.522158 8.967749 12.994176
605 1 2 0.0 -14.213392 8.234432 10.034534
606 1 2 0.0 -15.973695 10.135254 11.277292
607 1 1 0.0 -12.827258 6.715857 9.055934
608 1 1 0.0 -13.987850 5.548777 11.748873
609 1 2 0.0 -13.005571 6.776124 11.116101
610 1 2 0.0 -14.880332 4.359695 12.320239
611 1 2 0.0 -13.417756 3.594665 9.472821
612 1 2 0.0 -15.252634 5.561419 10.768229
613 1 1 0.0 -11.988412 2.029555 8.463716
614 1 1 0.0 -13.112900 0.870455 10.907352
615 1 2 0.0 -12.359198 2.063841 10.433943
616 1 2 0.0 -13.741032 -0.282365 11.294269
617 1 2 0.0 -12.195402 -1.045102 8.609850
618 1 2 0.0 -14.095798 0.987584 9.951513
619 1 1 0.0 -10.727991 -2.656748 7.573870
620 1 1 0.0 -11.673816 -3.846431 9.666627
621 1 2 0.0 -11.242413 -2.680597 9.418903
622 1 2 0.0 -11.918004 -4.971164 9.784467
623 1 2 0.0 -10.396899 -5.684869 7.340122
624 1 2 0.0 -12.381641 -3.586251 8.741333
625 1 1 0.0 -12.446868 38.698848 8.787383
626 1 1 0.0 -12.700917 36.938712 12.353789
627 1 2 0.0 -10.912056 38.473269 11.167694
628 1 2 0.0 -14.495038 35.422926 13.544491
629 1 2 0.0 -15.000227 35.304348 10.590032
630 1 2 0.0 -15.309468 36.642321 10.808353
631 1 1 0.0 -14.572762 34.182319 10.288245
632 1 1 0.0 -14.954167 32.670623 13.735360
633 1 2 0.0 -13.273141 34.146752 12.622406
634 1 2 0.0 -16.636904 31.218431 14.850671
635 1 2 0.0 -16.743006 30.850157 11.820419
636 1 2 0.0 -17.502824 32.275051 12.356844
637 1 1 0.0 -16.017509 29.665791 11.308224
638 1 1 0.0 -16.565943 28.358683 14.662999
639 1 2 0.0 -14.972234 29.774981 13.608666
640 1 2 0.0 -18.150959 26.971021 15.712588
641 1 2 0.0 -17.901413 26.395965 12.638245
642 1 2 0.0 -18.985887 27.907781 13.403874
643 1 1 0.0 -16.956123 25.149263 11.970878
644 1 1 0.0 -17.667952 24.011896 15.229907
645 1 2 0.0 -16.165377 25.368625 14.236896
646 1 2 0.0 -19.148850 22.688326 16.209247
647 1 2 0.0 -18.585042 21.941774 13.120881
648 1 2 0.0 -19.917957 23.540512 14.061908
649 1 1 0.0 -17.470374 20.632734 12.333935
650 1 1 0.0 -18.322889 19.634549 15.480450
651 1 2 0.0 -16.926467 20.932734 14.559388
652 1 2 0.0 -19.682787 18.373915 16.377594
653 1 2 0.0 -18.845633 17.487582 13.304856
654 1 2 0.0 -20.374791 19.173242 14.384429
655 1 1 0.0 -17.597505 16.116206 12.423688
656 1 1 0.0 -18.555114 15.228305 15.431865
657 1 2 0.0 -17.287762 16.469514 14.598970
658 1 2 0.0 -19.768827 14.028888 16.228992
659 1 2 0.0 -18.700878 13.033391 13.202660
660 1 2 0.0 -20.388361 14.805973 14.394009
661 1 1 0.0 -17.346029 11.599678 12.246148
662 1 1 0.0 -18.360047 10.792852 15.080912
663 1 2 0.0 -17.252992 11.979220 14.358281
664 1 2 0.0 -19.392838 9.652277 15.753440
665 1 2 0.0 -18.141077 8.579199 12.807446
666 1 2 0.0 -19.959570 10.438703 14.091286
667 1 1 0.0 -16.698850 7.083150 11.789246
668 1 1 0.0 -17.702503 6.325786 14.402692
669 1 2 0.0 -16.798715 7.460249 13.820733
670 1 2 0.0 -18.505274 5.240695 14.915877
671 1 2 0.0 -17.125577 4.125008 12.090511
672 1 2 0.0 -19.058583 6.071433 13.455197
673 1 1 0.0 -15.606819 2.566621 11.018281
674 1 1 0.0 -16.502325 1.821625 13.340483
675 1 2 0.0 -15.865251 2.908521 12.944093
676 1 2 0.0 -16.999453 0.786851 13.640811
677 1 2 0.0 -15.565442 -0.329184 10.989069
678 1 2 0.0 -17.613086 1.704164 12.434688
679 1 1 0.0 -13.965972 -1.949907 9.859857
680 1 1 0.0 -14.590070 -2.731211 11.774380
681 1 2 0.0 -14.327262 -1.684530 11.639668
682 1 2 0.0 -14.643900 -3.725080 11.764443
683 1 2 0.0 -13.269946 -4.783376 9.368469
684 1 2 0.0 -15.471200 -2.663106 10.922535
685 1 1 0.0 -15.332648 37.616068 10.824718
686 1 1 0.0 -15.924735 36.054859 14.581921
687 1 2 0.0 -13.976860 37.587887 13.283752
688 1 2 0.0 -17.859739 34.546584 15.872216
689 1 2 0.0 -18.247893 34.301898 12.882857
690 1 2 0.0 -18.366729 35.434853 12.966754
691 1 1 0.0 -17.951425 33.323413 12.673553
692 1 1 0.0 -18.566289 32.067945 16.250532
693 1 2 0.0 -16.777958 33.527304 15.061190
694 1 2 0.0 -20.343530 30.639924 17.433571
695 1 2 0.0 -20.367998 30.089717 14.379633
696 1 2 0.0 -20.998093 31.334075 14.824474
697 1 1 0.0 -19.731133 29.030758 13.930012
698 1 1 0.0 -20.433095 28.028069 17.370900
699 1 2 0.0 -18.770201 29.411430 16.266250
700 1 2 0.0 -22.076862 26.681964 18.463871
701 1 2 0.0 -21.777209 25.877536 15.374523
702 1 2 0.0 -22.777320 27.233297 16.080593
703 1 1 0.0 -20.887364 24.738102 14.746300
704 1 1 0.0 -21.684224 23.946107 18.055591
705 1 2 0.0 -20.144249 25.253296 17.033852
706 1 2 0.0 -23.193191 22.681826 19.057557
707 1 2 0.0 -22.608849 21.665355 15.961654
708 1 2 0.0 -23.895521 23.132518 16.870034
709 1 1 0.0 -21.520843 20.445447 15.193531
710 1 1 0.0 -22.395394 19.827235 18.358187
711 1 2 0.0 -20.990394 21.059076 17.427890
712 1 2 0.0 -23.754930 18.643777 19.258792