
4512 atoms

2 atom types

-50.654851 50.656058 xlo xhi
-50.656335 50.655424 ylo yhi
0.000000 150.691278 zlo zhi

Masses

1 91.224000
2 15.999400

Atoms

1 1 1 0.0 14.933374 20.726640 139.457165
2 1 1 0.0 14.217216 17.508806 142.458551
3 1 2 0.0 15.510485 18.832607 141.611378
4 1 2 0.0 12.890585 16.159789 143.328008
5 1 2 0.0 13.796182 17.519165 140.260014
6 1 2 0.0 12.175552 19.366007 141.404164
7 1 1 0.0 15.042044 16.097862 139.380446
8 1 1 0.0 13.850933 12.818646 142.490719
9 1 2 0.0 15.236045 14.180932 141.580710
10 1 2 0.0 12.448816 11.434489 143.411653
11 1 2 0.0 13.690212 12.842832 140.334827
12 1 2 0.0 12.183661 14.635702 141.398439
13 1 1 0.0 10.882906 20.842893 142.316761
14 1 1 0.0 10.153195 17.825612 145.336288
15 1 2 0.0 11.462546 19.192842 144.479879
16 1 2 0.0 8.819235 16.441259 146.209206
17 1 2 0.0 9.715955 17.536876 143.140619
18 1 2 0.0 8.106759 19.422685 144.276697
19 1 1 0.0 10.962100 16.075153 142.260851
20 1 1 0.0 9.793294 13.019155 145.358362
21 1 2 0.0 11.166847 14.412555 144.457993
22 1 2 0.0 8.411553 11.611658 146.263820
23 1 2 0.0 9.641326 12.735976 143.193306
24 1 2 0.0 8.112158 14.585638 144.272885
25 1 1 0.0 6.832437 20.920744 145.176358
26 1 1 0.0 6.088155 18.127502 148.214026
27 1 2 0.0 7.412624 19.524067 147.348381
28 1 2 0.0 4.747793 16.721378 149.090405
29 1 2 0.0 5.635728 17.548195 146.021224
30 1 2 0.0 4.037966 19.456032 147.149230
31 1 1 0.0 6.882156 16.059945 145.141256
32 1 1 0.0 5.737664 13.249063 148.226006
33 1 2 0.0 7.098754 14.660343 147.335275
34 1 2 0.0 4.377178 11.831065 149.115987
35 1 2 0.0 5.592440 12.667678 146.051785
36 1 2 0.0 4.040656 14.556183 147.147332
37 1 1 0.0 2.781969 20.962378 148.035954
38 1 1 0.0 2.022139 18.415126 1.091763
39 1 2 0.0 3.360821 19.827780 0.216882
40 1 2 0.0 0.676261 17.000195 1.971603
41 1 2 0.0 1.555501 17.553435 148.901829
42 1 2 0.0 -0.030827 19.466941 0.021763
43 1 1 0.0 2.802213 16.051812 148.021662
44 1 1 0.0 1.683957 13.507093 1.093649
45 1 2 0.0 3.031709 14.923461 0.212558
46 1 2 0.0 0.345587 12.091215 1.968155
47 1 2 0.0 1.543553 12.636065 148.910265
48 1 2 0.0 -0.030847 14.546546 0.021778
49 1 1 0.0 -1.268500 20.968893 0.895550
50 1 1 0.0 -2.044835 18.688732 3.969500
51 1 2 0.0 -0.692815 20.104676 3.085383
52 1 2 0.0 -3.395358 17.277722 4.852801
53 1 2 0.0 -2.524726 17.552731 1.782435
54 1 2 0.0 -4.099620 19.455696 2.894296
55 1 1 0.0 -1.277731 16.050539 0.902067
56 1 1 0.0 -2.367862 13.792752 3.961292
57 1 2 0.0 -1.034314 15.201520 3.089840
58 1 2 0.0 -3.683246 12.391710 4.820322
59 1 2 0.0 -2.505333 12.640312 1.768744
60 1 2 0.0 -4.102350 14.556480 2.896224
61 1 1 0.0 -5.318969 20.940458 3.755146
62 1 1 0.0 -6.112775 18.948207 6.847238
63 1 2 0.0 -4.748284 20.354752 5.953884
64 1 2 0.0 -7.467067 17.553938 7.733999
65 1 2 0.0 -6.604952 17.546066 4.663040
66 1 2 0.0 -8.168412 19.422003 5.766829
67 1 1 0.0 -5.357674 16.056094 3.782472
68 1 1 0.0 -6.417777 14.106263 6.828935
69 1 2 0.0 -5.099316 15.494525 5.967123
70 1 2 0.0 -7.709276 12.733199 7.672490
71 1 2 0.0 -6.554219 12.680528 4.627223
72 1 2 0.0 -8.173853 14.586240 5.770670
73 1 1 0.0 -9.369437 20.876332 6.614743
74 1 1 0.0 -10.181714 19.193060 9.724975
75 1 2 0.0 -8.805636 20.577298 8.822386
76 1 2 0.0 -11.538870 17.828787 10.615198
77 1 2 0.0 -10.685179 17.533263 7.543645
78 1 2 0.0 -12.237205 19.364961 8.639363
79 1 1 0.0 -9.437618 16.068621 6.662878
80 1 1 0.0 -10.465722 14.448597 9.696579
81 1 2 0.0 -9.163270 15.802869 8.844405
82 1 2 0.0 -11.732383 13.117461 10.524657
83 1 2 0.0 -10.603106 12.757772 7.485702
84 1 2 0.0 -12.245355 14.636626 8.645116
85 1 1 0.0 -13.419906 20.774764 9.474339
86 1 1 0.0 -14.251717 19.422352 12.602713
87 1 2 0.0 -12.864972 20.770804 11.690887
88 1 2 0.0 -15.610773 18.102167 13.496396
89 1 2 0.0 -14.765406 17.513966 10.424251
90 1 2 0.0 -16.305998 19.282925 11.511896
91 1 1 0.0 -13.517561 16.088461 9.543283
92 1 1 0.0 -14.511569 14.821603 12.564222
93 1 2 0.0 -13.226117 16.127394 11.721688
94 1 2 0.0 -15.752349 13.547665 13.376824
95 1 2 0.0 -14.651992 12.874199 10.344181
96 1 2 0.0 -16.316858 14.709089 11.519563
97 1 1 0.0 17.614957 18.501690 142.715965
98 1 1 0.0 16.467575 15.411245 145.717351
99 1 2 0.0 17.928958 16.546743 144.870178
100 1 2 0.0 14.969710 14.255306 146.586808
101 1 2 0.0 16.051867 15.478803 143.518814
102 1 2 0.0 14.697633 17.529001 144.662964
103 1 1 0.0 17.092728 13.901183 142.639246
104 1 1 0.0 15.466460 10.814559 145.749519
105 1 2 0.0 17.024068 11.975685 144.839510
106 1 2 0.0 13.889028 9.634078 146.670453
107 1 2 0.0 15.310525 10.860390 143.593627
108 1 2 0.0 14.061963 12.841595 144.657239
109 1 1 0.0 13.617987 19.168053 145.575561
110 1 1 0.0 12.484470 16.278139 148.595088
111 1 2 0.0 13.967695 17.454473 147.738679
112 1 2 0.0 10.974535 15.088190 149.468006
113 1 2 0.0 12.012006 16.051589 146.399419
114 1 2 0.0 10.674402 18.138836 147.535497
115 1 1 0.0 13.047647 14.433887 145.519651
116 1 1 0.0 11.473851 11.565369 148.617162
117 1 2 0.0 13.024242 12.758893 147.716793
118 1 2 0.0 9.913430 10.358993 149.522620
119 1 2 0.0 11.284761 11.305503 146.452106
120 1 2 0.0 10.021522 13.346050 147.531685
121 1 1 0.0 9.615791 19.796371 148.435158
122 1 1 0.0 8.498326 17.130395 1.472826
123 1 2 0.0 10.000520 18.333734 0.607181
124 1 2 0.0 6.979085 15.919748 2.349205
125 1 2 0.0 7.971275 16.618043 149.280024
126 1 2 0.0 6.647996 18.725557 0.408030
127 1 1 0.0 9.003586 14.974022 148.400056
128 1 1 0.0 7.487233 12.345031 1.484806
129 1 2 0.0 9.027711 13.557964 0.594075
130 1 2 0.0 5.946440 11.125360 2.374787
131 1 2 0.0 7.264245 11.788816 149.310585
132 1 2 0.0 5.983885 13.870922 0.406132
133 1 1 0.0 5.608666 20.388808 1.294754
134 1 1 0.0 4.509273 17.968649 4.350563
135 1 2 0.0 6.027737 19.185994 3.475682
136 1 2 0.0 2.983370 16.750029 5.230403
137 1 2 0.0 3.929716 17.178475 2.160629
138 1 2 0.0 2.618536 19.290050 3.280563
139 1 1 0.0 4.960489 15.521167 1.280462
140 1 1 0.0 3.506348 13.152292 4.352449
141 1 2 0.0 5.034303 14.372081 3.471358
142 1 2 0.0 1.987754 11.931711 5.226955
143 1 2 0.0 3.248720 12.308473 2.169065
144 1 2 0.0 1.948945 14.415428 3.280578
145 1 1 0.0 1.596763 20.946454 4.154350
146 1 1 0.0 0.517364 18.793147 7.228300
147 1 2 0.0 2.049490 20.011936 6.344183
148 1 2 0.0 -1.012608 17.579043 8.111601
149 1 2 0.0 -0.112651 17.733018 5.041235
150 1 2 0.0 -1.413938 19.832593 6.153096
151 1 1 0.0 0.918325 16.075108 4.160867
152 1 1 0.0 -0.468907 13.986669 7.220092
153 1 2 0.0 1.043942 15.200862 6.348640
154 1 2 0.0 -1.962710 12.777658 8.079122
155 1 2 0.0 -0.761924 12.863656 5.027544
156 1 2 0.0 -2.083332 14.979323 6.155024
157 1 1 0.0 -2.419896 21.469474 7.013946
158 1 1 0.0 -3.477426 19.603777 10.106038
159 1 2 0.0 -1.934224 20.811557 9.212684
160 1 2 0.0 -5.008853 18.406771 10.992799
161 1 2 0.0 -4.155829 18.281655 7.921840
162 1 2 0.0 -5.449467 20.352899 9.025629
163 1 1 0.0 -3.122910 16.635812 7.041272
164 1 1 0.0 -4.438486 14.848379 10.087735
165 1 2 0.0 -2.943374 16.044310 9.225923
166 1 2 0.0 -5.904819 13.663835 10.931290
167 1 2 0.0 -4.767674 13.454474 7.886023
168 1 2 0.0 -6.112911 15.562860 9.029470
169 1 1 0.0 -6.441413 21.957136 9.873543
170 1 1 0.0 -7.475195 20.400057 12.983775
171 1 2 0.0 -5.923549 21.584160 12.081186
172 1 2 0.0 -9.005377 19.233157 13.873998
173 1 2 0.0 -8.199843 18.824212 10.802445
174 1 2 0.0 -9.488173 20.850072 11.898163
175 1 1 0.0 -7.163197 17.203424 9.921678
176 1 1 0.0 -8.402191 15.738376 12.955379
177 1 2 0.0 -6.927564 16.902812 12.103205
178 1 2 0.0 -9.838211 14.591990 13.783457
179 1 2 0.0 -8.768385 14.081975 10.744502
180 1 2 0.0 -10.139683 16.166830 11.903916
181 1 1 0.0 -10.468025 22.407703 12.733139
182 1 1 0.0 -11.476136 21.181065 15.861513
183 1 2 0.0 -9.918792 22.328264 14.949687
184 1 2 0.0 -13.002200 20.058102 16.755196
185 1 2 0.0 -12.244741 19.360335 13.683051
186 1 2 0.0 -13.530281 21.322483 14.770696
187 1 1 0.0 -11.202487 17.778283 12.802083
188 1 1 0.0 -12.359644 16.658474 15.823022
189 1 2 0.0 -10.908456 17.777193 14.980488
190 1 2 0.0 -13.762240 15.565233 16.635624
191 1 2 0.0 -12.763764 14.748295 13.602981
192 1 2 0.0 -14.163450 16.792672 14.778363
193 1 1 0.0 19.968823 15.932526 145.974765
194 1 1 0.0 18.411564 13.026965 148.976151
195 1 2 0.0 20.013872 13.953034 148.128978
196 1 2 0.0 16.770331 12.085610 149.845608
197 1 2 0.0 18.008916 13.150464 146.777614
198 1 2 0.0 16.946272 15.365876 147.921764
199 1 1 0.0 18.825411 11.445879 145.898046
200 1 1 0.0 16.794240 8.609271 149.008319
201 1 2 0.0 18.495366 9.547636 148.098310
202 1 2 0.0 15.070842 7.654429 149.929253
203 1 2 0.0 16.645992 8.675896 146.852427
204 1 2 0.0 15.678649 10.808577 147.916039
205 1 1 0.0 16.099712 17.136600 148.834361
206 1 1 0.0 14.583478 14.427819 1.853888
207 1 2 0.0 16.212982 15.391373 0.997479
208 1 2 0.0 12.925660 13.454412 2.726806
209 1 2 0.0 14.084580 14.267670 149.658219
210 1 2 0.0 13.043453 16.517523 0.794297
211 1 1 0.0 14.890449 12.524085 148.778451
212 1 1 0.0 12.940942 9.896414 1.875962
213 1 2 0.0 14.639327 10.867858 0.975593
214 1 2 0.0 11.230873 8.913604 2.781420
215 1 2 0.0 12.718249 9.664698 149.710906
216 1 2 0.0 11.744440 11.858166 0.790485
217 1 1 0.0 12.220248 18.303696 1.693958
218 1 1 0.0 10.750389 15.814585 4.731626
219 1 2 0.0 12.402361 16.802311 3.865981
220 1 2 0.0 9.080536 14.821940 5.608005
221 1 2 0.0 10.158520 15.378721 2.538824
222 1 2 0.0 9.134343 17.646703 3.666830
223 1 1 0.0 10.957509 13.609515 1.658856
224 1 1 0.0 9.097507 11.211326 4.743606
225 1 2 0.0 10.788711 12.203347 3.852875
226 1 2 0.0 7.405073 10.212673 5.633587
227 1 2 0.0 8.800902 10.690630 2.569385
228 1 2 0.0 7.815787 12.927599 3.664932
229 1 1 0.0 8.331018 19.435914 4.553554
230 1 1 0.0 6.912514 17.187875 7.609363
231 1 2 0.0 8.582511 18.187261 6.734482
232 1 2 0.0 5.234975 16.188236 8.489203
233 1 2 0.0 6.230821 16.483917 5.419429
234 1 2 0.0 5.219183 18.754276 6.539363
235 1 1 0.0 7.026477 14.701758 4.539262
236 1 1 0.0 5.263505 12.552800 7.611249
237 1 2 0.0 6.943237 13.553317 6.730158
238 1 2 0.0 3.592940 11.550224 8.485755
239 1 2 0.0 4.893446 11.751888 5.427865
240 1 2 0.0 3.892478 14.016118 6.539378
241 1 1 0.0 4.432319 20.534316 7.413150
242 1 1 0.0 3.069937 18.547925 10.487100
243 1 2 0.0 4.753664 19.546884 9.602983
244 1 2 0.0 1.388981 17.553315 11.370401
245 1 2 0.0 2.301520 17.583390 8.300035
246 1 2 0.0 1.298049 19.840515 9.411896
247 1 1 0.0 3.097295 15.800607 7.419667
248 1 1 0.0 1.438771 13.920370 10.478892
249 1 2 0.0 3.102776 14.917400 9.607440
250 1 2 0.0 -0.205659 12.925884 11.337922
251 1 2 0.0 0.995659 12.847679 8.286344
252 1 2 0.0 -0.025554 15.123483 9.413824
253 1 1 0.0 0.524197 21.599061 10.272746
254 1 1 0.0 -0.777381 19.894629 13.364838
255 1 2 0.0 0.915821 20.881173 12.471484
256 1 2 0.0 -2.457452 18.917155 14.251599
257 1 2 0.0 -1.629389 18.677122 11.180640
258 1 2 0.0 -2.629136 20.905139 12.284429
259 1 1 0.0 -0.830046 16.906030 10.300072
260 1 1 0.0 -2.376619 15.314249 13.346535
261 1 2 0.0 -0.732672 16.295598 12.484723
262 1 2 0.0 -3.990506 14.340263 14.190090
263 1 2 0.0 -2.892429 13.978105 11.144823
264 1 2 0.0 -3.938241 16.249939 12.288270
265 1 1 0.0 -3.393549 22.629437 13.132343
266 1 1 0.0 -4.629603 21.227521 16.242575
267 1 2 0.0 -2.931257 22.189460 15.339986
268 1 2 0.0 -6.304344 20.279704 17.132798
269 1 2 0.0 -5.561953 19.764945 14.061245
270 1 2 0.0 -6.562618 21.947277 15.156963
271 1 1 0.0 -4.755507 18.018167 13.180478
272 1 1 0.0 -6.182341 16.735350 16.214179
273 1 2 0.0 -4.562975 17.688286 15.362005
274 1 2 0.0 -7.761004 15.795043 17.042257
275 1 2 0.0 -6.770534 15.144189 14.003302
276 1 2 0.0 -7.845366 17.396258 15.162716
277 1 1 0.0 -7.321391 23.623757 15.991939
278 1 1 0.0 -8.487046 22.545715 19.120313
279 1 2 0.0 -6.788077 23.470318 18.208487
280 1 2 0.0 -10.151729 21.640866 20.013996
281 1 2 0.0 -9.496268 20.846514 16.941851
282 1 2 0.0 -10.502839 22.965347 18.029496
283 1 1 0.0 -8.678997 19.137348 16.060883
284 1 1 0.0 -9.977774 18.185422 19.081822
285 1 2 0.0 -8.387849 19.096257 18.239288
286 1 2 0.0 -11.516091 17.293217 19.894424
287 1 2 0.0 -10.638073 16.348005 16.861781
288 1 2 0.0 -11.746539 18.563836 18.037163
289 1 1 0.0 21.951178 13.066945 149.233565
290 1 1 0.0 20.013014 10.400325 2.234951
291 1 2 0.0 21.726438 11.099736 1.387778
292 1 2 0.0 18.258948 9.691067 3.104408
293 1 2 0.0 19.630918 10.577468 0.036414
294 1 2 0.0 18.879634 12.916878 1.180564
295 1 1 0.0 20.207856 8.777630 149.156846
296 1 1 0.0 17.809572 6.243812 2.267119
297 1 2 0.0 19.622567 6.941958 1.357110
298 1 2 0.0 15.972270 5.532374 3.188053
299 1 2 0.0 17.671770 6.329991 0.111227
300 1 2 0.0 17.003642 8.574470 1.174839
301 1 1 0.0 18.281910 14.786330 2.093161
302 1 1 0.0 16.411168 12.309077 5.112688
303 1 2 0.0 18.156635 13.041923 4.256279
304 1 2 0.0 14.636309 11.570322 5.985606
305 1 2 0.0 15.895117 12.218308 2.917019
306 1 2 0.0 15.169836 14.588910 4.053097
307 1 1 0.0 16.456221 10.381279 2.037251
308 1 1 0.0 14.167274 8.043342 5.134762
309 1 2 0.0 15.982055 8.774631 4.234393
310 1 2 0.0 12.339370 7.302381 6.040220
311 1 2 0.0 13.915120 7.844085 2.969706
312 1 2 0.0 13.248858 10.149665 4.049285
313 1 1 0.0 14.597353 16.470489 4.952758
314 1 1 0.0 12.802447 14.204553 7.990426
315 1 2 0.0 14.573463 14.958288 7.124781
316 1 2 0.0 11.013047 13.448376 8.866805
317 1 2 0.0 12.156771 13.853285 5.797624
318 1 2 0.0 11.450750 16.239541 6.925630
319 1 1 0.0 12.707573 11.991810 4.917656
320 1 1 0.0 10.538525 9.869039 8.002406
321 1 2 0.0 12.348992 10.621692 7.111675
322 1 2 0.0 8.725937 9.109984 8.892387
323 1 2 0.0 10.173823 9.393549 5.828185
324 1 2 0.0 9.502280 11.743765 6.923732
325 1 1 0.0 10.898375 18.121425 7.812354
326 1 1 0.0 9.187151 16.087329 10.868163
327 1 2 0.0 10.977610 16.850164 9.993282
328 1 2 0.0 7.389185 15.325270 11.748003
329 1 2 0.0 8.416005 15.482685 8.678229
330 1 2 0.0 7.722729 17.869589 9.798163
331 1 1 0.0 8.961742 13.608830 7.798062
332 1 1 0.0 6.922737 11.719769 10.870049
333 1 2 0.0 8.722995 12.482399 9.988958
334 1 2 0.0 5.131281 10.953851 11.744555
335 1 2 0.0 6.447132 10.976666 8.686665
336 1 2 0.0 5.763593 13.356046 9.798178
337 1 1 0.0 7.185414 19.740147 10.671950
338 1 1 0.0 5.565395 17.957628 13.745900
339 1 2 0.0 7.369400 18.718172 12.861783
340 1 2 0.0 3.764729 17.201016 14.629201
341 1 2 0.0 4.672872 17.106632 11.558835
342 1 2 0.0 3.985887 19.479314 12.670696
343 1 1 0.0 5.218642 15.232143 10.678467
344 1 1 0.0 3.319682 13.595091 13.737692
345 1 2 0.0 5.103884 14.356406 12.866240
346 1 2 0.0 1.555218 12.833630 14.596722
347 1 2 0.0 2.734719 12.592676 11.545144
348 1 2 0.0 2.032698 14.986278 12.672624
349 1 1 0.0 3.458537 21.326808 13.531546
350 1 1 0.0 1.937127 19.815350 16.623638
351 1 2 0.0 3.748828 20.562306 15.730284
352 1 2 0.0 0.139669 19.075595 17.510399
353 1 2 0.0 0.927365 18.725112 14.439440
354 1 2 0.0 0.240108 21.068449 15.543229
355 1 1 0.0 1.478261 16.861719 13.558872
356 1 1 0.0 -0.270537 15.495204 16.605335
357 1 2 0.0 1.491661 16.243715 15.743523
358 1 2 0.0 -2.001951 14.749898 17.448890
359 1 2 0.0 -0.963372 14.241682 14.403623
360 1 2 0.0 -1.690302 16.634697 15.547070
361 1 1 0.0 -0.282551 22.880729 16.391143
362 1 1 0.0 -1.697880 21.660057 19.501375
363 1 2 0.0 0.115569 22.381936 18.598786
364 1 2 0.0 -3.486022 20.948957 20.391598
365 1 2 0.0 -2.820585 20.337961 17.320045
366 1 2 0.0 -3.514969 22.636164 18.415763
367 1 1 0.0 -2.259345 18.497691 16.439278
368 1 1 0.0 -3.847472 17.420971 19.472979
369 1 2 0.0 -2.113493 18.144678 18.620805
370 1 2 0.0 -5.539408 16.704237 20.301057
371 1 2 0.0 -4.646720 15.924653 17.262102
372 1 2 0.0 -5.405091 18.302037 18.421516
373 1 1 0.0 -4.038547 24.400304 19.250739
374 1 1 0.0 -5.340059 23.490913 22.379113
375 1 2 0.0 -3.531074 24.175718 21.467287
376 1 2 0.0 -7.112389 22.821012 23.272796
377 1 2 0.0 -6.571121 21.944854 20.200651
378 1 2 0.0 -7.279997 24.180951 21.288296
379 1 1 0.0 -5.994038 20.140372 19.319683
380 1 1 0.0 -7.410272 19.374040 22.340622
381 1 2 0.0 -5.711190 20.060043 21.498088
382 1 2 0.0 -9.055691 18.699470 23.153224
383 1 2 0.0 -8.314466 17.643569 20.120581
384 1 2 0.0 -9.111088 19.989628 21.295963
385 1 1 0.0 23.525142 9.958260 2.492365
386 1 1 0.0 21.242132 7.580192 5.493751
387 1 2 0.0 23.034793 8.039934 4.646578
388 1 2 0.0 19.407866 7.116227 6.363208
389 1 2 0.0 20.887696 7.807684 3.295214
390 1 2 0.0 20.461749 10.227566 4.439364
391 1 1 0.0 21.214344 5.946078 2.415646
392 1 1 0.0 18.493566 3.762191 5.525919
393 1 2 0.0 20.384700 4.207128 4.615910
394 1 2 0.0 16.576541 3.307392 6.446853
395 1 2 0.0 18.368773 3.866320 3.370027
396 1 2 0.0 18.012290 6.180840 4.433639
397 1 1 0.0 20.123983 12.160968 5.351961
398 1 1 0.0 17.933535 9.961330 8.371488
399 1 2 0.0 19.762492 10.449835 7.515079
400 1 2 0.0 16.074656 9.470972 9.244406
401 1 2 0.0 17.409933 9.941630 6.175819
402 1 2 0.0 17.013993 12.388877 7.311897
403 1 1 0.0 17.715834 8.045335 5.296051
404 1 1 0.0 15.130031 6.040627 8.393562
405 1 2 0.0 17.027444 6.518157 7.493193
406 1 2 0.0 13.218300 5.555302 9.299020
407 1 2 0.0 14.853107 5.877537 6.228506
408 1 2 0.0 14.506788 8.252336 7.308085
409 1 1 0.0 16.702881 14.330858 8.211558
410 1 1 0.0 14.616322 12.330251 11.249226
411 1 2 0.0 16.473432 12.835975 10.383581
412 1 2 0.0 12.740666 11.824612 12.125605
413 1 2 0.0 13.928851 12.070115 9.056424
414 1 2 0.0 13.554121 14.530250 10.184430
415 1 1 0.0 14.221218 10.151002 8.176456
416 1 1 0.0 11.783479 8.343145 11.261206
417 1 2 0.0 13.679527 8.842426 10.370475
418 1 2 0.0 9.884460 7.837808 12.151187
419 1 2 0.0 11.357465 7.921707 9.086985
420 1 2 0.0 11.011988 10.341444 10.182532
421 1 1 0.0 13.262973 16.469796 11.071154
422 1 1 0.0 11.290866 14.687486 14.126963
423 1 2 0.0 13.168477 15.199578 13.252082
424 1 2 0.0 9.405924 14.177184 15.006803
425 1 2 0.0 10.444612 14.193404 11.937029
426 1 2 0.0 10.082598 16.652447 13.056963
427 1 1 0.0 10.730277 12.262716 11.056862
428 1 1 0.0 8.453175 10.668697 14.128849
429 1 2 0.0 10.340466 11.179253 13.247758
430 1 2 0.0 6.574157 10.153687 15.003355
431 1 2 0.0 7.880872 9.997227 11.945465
432 1 2 0.0 7.527480 12.447490 13.056978
433 1 1 0.0 9.804828 18.578722 13.930750
434 1 1 0.0 7.957312 17.033239 17.004700
435 1 2 0.0 9.848031 17.541217 16.120583
436 1 2 0.0 6.070436 16.528700 17.888001
437 1 2 0.0 6.957287 16.311614 14.817635
438 1 2 0.0 6.599569 18.755710 15.929496
439 1 1 0.0 7.242899 14.380293 13.937267
440 1 1 0.0 5.138832 13.016881 16.996492
441 1 2 0.0 7.010037 13.528319 16.125040
442 1 2 0.0 3.287162 12.502613 17.855522
443 1 2 0.0 4.422901 12.103393 14.803944
444 1 2 0.0 4.053134 14.570260 15.931424
445 1 1 0.0 6.328533 20.657780 16.790346
446 1 1 0.0 4.615595 19.367417 19.882438
447 1 2 0.0 6.512090 19.860887 18.989084
448 1 2 0.0 2.734191 18.879143 20.769199
449 1 2 0.0 3.466866 18.424729 17.698240
450 1 2 0.0 3.104885 20.839790 18.802029
451 1 1 0.0 3.759065 16.503704 16.817672
452 1 1 0.0 1.840579 15.387878 19.864135
453 1 2 0.0 3.688242 15.889626 19.002323
454 1 2 0.0 0.023849 14.885117 20.707690
455 1 2 0.0 0.983609 14.240298 17.662423
456 1 2 0.0 0.589084 16.709975 18.805870
457 1 1 0.0 2.833705 22.706337 19.649943
458 1 1 0.0 1.265431 21.689619 22.760175
459 1 2 0.0 3.160244 22.158007 21.857586
460 1 2 0.0 -0.602844 21.228465 23.650398
461 1 2 0.0 -0.026742 20.532600 20.578845
462 1 2 0.0 -0.401925 22.903916 21.674563
463 1 1 0.0 0.278852 18.633074 19.698078
464 1 1 0.0 -1.441023 17.782484 22.731779
465 1 2 0.0 0.375309 18.263497 21.879605
466 1 2 0.0 -3.214754 17.302657 23.559857
467 1 2 0.0 -2.436456 16.408847 20.520902
468 1 2 0.0 -2.864256 18.867315 21.680316
469 1 1 0.0 -0.680567 24.722894 22.509539
470 1 1 0.0 -2.093723 23.999073 25.637913
471 1 2 0.0 -0.208377 24.431340 24.726087
472 1 2 0.0 -3.940727 23.576584 26.531596
473 1 2 0.0 -3.523723 22.634920 23.459451
474 1 2 0.0 -3.921714 24.946682 24.547096
475 1 1 0.0 -3.197562 20.768694 22.578483
476 1 1 0.0 -4.704905 20.202213 25.599422
477 1 2 0.0 -2.928277 20.650623 24.756888
478 1 2 0.0 -6.426815 19.757828 26.412024
479 1 2 0.0 -5.836173 18.610883 23.379381
480 1 2 0.0 -6.306131 21.043524 24.554763
481 1 1 0.0 24.661433 6.664306 5.751165
482 1 1 0.0 22.076051 4.619034 8.752551
483 1 2 0.0 23.914598 4.830552 7.905378
484 1 2 0.0 20.195711 4.408992 9.622008
485 1 2 0.0 21.755869 4.892641 6.554014
486 1 2 0.0 21.663184 7.347977 7.698164
487 1 1 0.0 21.826150 3.003902 5.674446
488 1 1 0.0 18.833496 1.210575 8.784719
489 1 2 0.0 20.767585 1.394027 7.874710
490 1 2 0.0 16.872415 1.020877 9.705653
491 1 2 0.0 18.724033 1.330718 6.628827
492 1 2 0.0 18.685829 3.672218 7.692439
493 1 1 0.0 21.591658 9.309356 8.610761
494 1 1 0.0 19.122259 7.428258 11.630288
495 1 2 0.0 21.000678 7.663333 10.773879
496 1 2 0.0 17.213943 7.195419 12.503206
497 1 2 0.0 18.600846 7.479994 9.434619
498 1 2 0.0 18.541612 9.958356 10.570697
499 1 1 0.0 18.645852 5.559711 8.554851
500 1 1 0.0 15.811301 3.925530 11.652362
501 1 2 0.0 17.756046 4.140416 10.751993
502 1 2 0.0 13.851310 3.704868 12.557820
503 1 2 0.0 15.514760 3.801641 9.487306
504 1 2 0.0 15.494827 6.201476 10.566885
505 1 1 0.0 18.497661 11.924608 11.470358
506 1 1 0.0 16.158267 10.226552 14.508026
507 1 2 0.0 18.066921 10.474854 13.642381
508 1 2 0.0 14.231252 9.980857 15.384405
509 1 2 0.0 15.441792 10.062387 12.315224
510 1 2 0.0 15.405325 12.550630 13.443230
511 1 1 0.0 15.470285 8.121341 11.435256
512 1 1 0.0 12.809208 6.662030 14.520006
513 1 2 0.0 14.755560 6.898651 13.629275
514 1 2 0.0 10.859087 6.419814 15.409987
515 1 2 0.0 12.329807 6.302484 12.345785
516 1 2 0.0 12.316823 8.746726 13.441332
517 1 1 0.0 15.380820 14.511754 14.329954
518 1 1 0.0 13.184520 13.014389 17.385763
519 1 2 0.0 15.114351 13.266211 16.510882
520 1 2 0.0 11.247670 12.765339 18.265603
521 1 2 0.0 12.278903 12.640063 15.195829
522 1 2 0.0 12.254884 15.125494 16.315763
523 1 1 0.0 12.299181 10.688461 14.315662
524 1 1 0.0 9.826346 9.419140 17.387649
525 1 2 0.0 11.765558 9.668122 16.506558
526 1 2 0.0 7.894724 9.164619 18.262155
527 1 2 0.0 9.167993 8.831795 15.204265
528 1 2 0.0 9.151321 11.307355 16.315778
529 1 1 0.0 12.241827 17.071650 17.189550
530 1 1 0.0 10.201188 15.791954 20.263500
531 1 2 0.0 12.143444 16.037916 19.379383
532 1 2 0.0 8.263205 15.548877 21.146801
533 1 2 0.0 9.112265 15.213127 18.076435
534 1 2 0.0 9.090470 17.683165 19.188296
535 1 1 0.0 9.132405 13.260905 17.196067
536 1 1 0.0 6.862376 12.196498 20.255292
537 1 2 0.0 8.785772 12.448544 19.383840
538 1 2 0.0 4.957949 11.938991 21.114322
539 1 2 0.0 6.028797 11.388932 18.062744
540 1 2 0.0 5.998163 13.883170 19.190224
541 1 1 0.0 9.080790 19.604425 20.049146
542 1 1 0.0 7.208193 18.559163 23.141238
543 1 2 0.0 9.154197 18.789965 22.247884
544 1 2 0.0 5.277845 18.331453 24.027999
545 1 2 0.0 5.941867 17.781564 20.957040
546 1 2 0.0 5.911897 20.223418 22.060829
547 1 1 0.0 5.969934 15.838646 20.076472
548 1 1 0.0 3.917452 14.994269 23.122935
549 1 2 0.0 5.816205 15.239918 22.261123
550 1 2 0.0 2.049205 14.743407 23.966490
551 1 2 0.0 2.912290 13.973981 20.921223
552 1 2 0.0 2.857510 16.474371 22.064670
553 1 1 0.0 5.897241 22.109504 22.908743
554 1 1 0.0 4.205200 21.315655 26.018975
555 1 2 0.0 6.146126 21.521839 25.116386
556 1 2 0.0 2.291550 21.113028 26.909198
557 1 2 0.0 2.767598 20.345240 23.837645
558 1 2 0.0 2.718596 22.745552 24.933363
559 1 1 0.0 2.811861 18.421798 22.956878
560 1 1 0.0 0.992236 17.813162 25.990579
561 1 2 0.0 2.857128 18.042533 25.138405
562 1 2 0.0 -0.830290 17.579169 26.818657
563 1 2 0.0 -0.180863 16.587763 23.779702
564 1 2 0.0 -0.270133 19.081577 24.939116
565 1 1 0.0 2.690074 24.585528 25.768339
566 1 1 0.0 1.191565 24.060743 28.896713
567 1 2 0.0 3.118197 24.232430 27.984887
568 1 2 0.0 -0.695750 23.893526 29.790396
569 1 2 0.0 -0.410767 22.903875 26.718251
570 1 2 0.0 -0.490470 25.248291 27.805896
571 1 1 0.0 -0.341598 21.010625 25.837283
572 1 1 0.0 -1.912006 20.654534 28.858222
573 1 2 0.0 -0.090885 20.857008 28.015688
574 1 2 0.0 -3.678371 20.448601 29.670824
575 1 2 0.0 -3.249300 19.231951 26.638181
576 1 2 0.0 -3.383851 21.705915 27.813563
577 1 1 0.0 25.338910 3.246366 9.009965
578 1 1 0.0 22.499256 1.571941 12.011351
579 1 2 0.0 24.349484 1.531300 11.164178
580 1 2 0.0 20.607824 1.619731 12.880808
581 1 2 0.0 22.219285 1.886573 9.812814
582 1 2 0.0 22.461586 4.331681 10.956964
583 1 1 0.0 22.031891 0.005840 8.933246
584 1 1 0.0 18.823038 -1.363562 12.043519
585 1 2 0.0 20.764100 -1.445010 11.133510
586 1 2 0.0 16.854385 -1.284630 12.964453
587 1 2 0.0 18.730943 -1.229641 9.887627
588 1 2 0.0 19.011727 1.095276 10.951239
589 1 1 0.0 22.657631 6.284549 11.869561
590 1 1 0.0 19.955222 4.756987 14.889088
591 1 2 0.0 21.848157 4.734258 14.032679
592 1 2 0.0 18.032973 4.785999 15.762006
593 1 2 0.0 19.445700 4.879196 12.693419
594 1 2 0.0 19.724274 7.342564 13.829497
595 1 1 0.0 19.228973 2.970651 11.813651
596 1 1 0.0 16.198409 1.737400 14.911162
597 1 2 0.0 18.154306 1.685644 14.010793
598 1 2 0.0 14.226623 1.785508 15.816620
599 1 2 0.0 15.887768 1.655017 12.746106
600 1 2 0.0 16.194591 4.035240 13.825685
601 1 1 0.0 19.948301 9.296506 14.729158
602 1 1 0.0 17.399596 7.932593 17.766826
603 1 2 0.0 19.324284 7.918854 16.901181
604 1 2 0.0 15.457071 7.951413 18.643205
605 1 2 0.0 16.667446 7.867454 15.574024
606 1 2 0.0 16.969920 10.337513 16.702030
607 1 1 0.0 16.431535 5.940586 14.694056
608 1 1 0.0 13.596628 4.856971 17.778806
609 1 2 0.0 15.557074 4.826530 16.888075
610 1 2 0.0 11.631686 4.882382 18.668787
611 1 2 0.0 13.072758 4.566008 15.604585
612 1 2 0.0 13.392510 6.989279 16.700132
613 1 1 0.0 17.212514 12.283729 17.588754
614 1 1 0.0 14.832882 11.099167 20.644563
615 1 2 0.0 16.779030 11.086033 19.769682
616 1 2 0.0 12.880158 11.116001 21.524403
617 1 2 0.0 13.884751 10.851559 18.454629
618 1 2 0.0 14.199175 13.317139 19.574563
619 1 1 0.0 13.639265 8.915352 17.574462
620 1 1 0.0 11.016702 7.994344 20.646449
621 1 2 0.0 12.971757 7.977121 19.765358
622 1 2 0.0 9.068413 8.005047 21.520955
623 1 2 0.0 10.284547 7.502052 18.463065
624 1 2 0.0 10.604907 9.956852 19.574578
625 1 1 0.0 14.451074 15.246968 20.448350
626 1 1 0.0 12.255275 14.256868 23.522300
627 1 2 0.0 14.212935 14.236239 22.638183
628 1 2 0.0 10.302242 14.279774 24.405601
629 1 2 0.0 11.097715 13.831606 21.335235
630 1 2 0.0 11.412247 16.281634 22.447096
631 1 1 0.0 10.852007 11.894804 20.454867
632 1 1 0.0 8.458249 11.149206 23.514092
633 1 2 0.0 10.398052 11.137170 22.642640
634 1 2 0.0 6.536496 11.153250 24.373122
635 1 2 0.0 7.522531 10.462586 21.321544
636 1 2 0.0 7.831599 12.937791 22.449024
637 1 1 0.0 11.664104 18.186339 23.307946
638 1 1 0.0 9.666686 17.405624 26.400038
639 1 2 0.0 11.625995 17.369466 25.506684
640 1 2 0.0 7.723308 17.442716 27.286799
641 1 2 0.0 8.306324 16.807582 24.215840
642 1 2 0.0 8.608921 19.230799 25.319629
643 1 1 0.0 8.069735 14.878918 23.335272
644 1 1 0.0 5.921442 14.321699 26.381735
645 1 2 0.0 7.835961 14.306678 25.519923
646 1 2 0.0 4.036437 14.327402 27.225290
647 1 2 0.0 4.786789 13.447685 24.180023
648 1 2 0.0 5.072774 15.932270 25.323470
649 1 1 0.0 8.851061 21.101334 26.167543
650 1 1 0.0 7.066732 20.545125 29.277775
651 1 2 0.0 9.017661 20.485268 28.375186
652 1 2 0.0 5.143310 20.604793 30.167998
653 1 2 0.0 5.510449 19.779366 27.096445
654 1 2 0.0 5.788540 22.164019 28.192163
655 1 1 0.0 5.292557 17.867793 26.215678
656 1 1 0.0 3.407035 17.512435 29.249379
657 1 2 0.0 5.285792 17.485897 28.397205
658 1 2 0.0 1.569620 17.528630 30.077457
659 1 2 0.0 2.078095 16.458071 27.038502
660 1 2 0.0 2.329015 18.940835 28.197916
661 1 1 0.0 6.010668 23.990760 29.027139
662 1 1 0.0 4.454685 23.674775 32.155513
663 1 2 0.0 6.386758 23.582687 31.243687
664 1 2 0.0 2.562171 23.765941 33.049196
665 1 2 0.0 2.709831 22.746715 29.977051
666 1 2 0.0 2.949900 25.080169 31.064696
667 1 1 0.0 2.520722 20.861664 29.096083
668 1 1 0.0 0.916464 20.722588 32.117022
669 1 2 0.0 2.748198 20.675358 31.274488
670 1 2 0.0 -0.861492 20.758939 32.929624
671 1 2 0.0 -0.601975 19.495217 29.896981
672 1 2 0.0 -0.398616 21.964478 31.072363
673 1 1 0.0 25.544969 -0.231971 12.268765
674 1 1 0.0 22.503873 -1.504398 15.270151
675 1 2 0.0 24.331359 -1.796441 14.422978
676 1 2 0.0 20.636539 -1.199665 16.139608
677 1 2 0.0 22.269322 -1.154594 13.071614
678 1 2 0.0 22.842101 1.234797 14.215764
679 1 1 0.0 21.827739 -2.992331 12.192046
680 1 1 0.0 18.462386 -3.912332 15.302319
681 1 2 0.0 20.374309 -4.257163 14.392310
682 1 2 0.0 16.522788 -3.566238 16.223253
683 1 2 0.0 18.389372 -3.767124 13.146427
684 1 2 0.0 18.983921 -1.502043 14.210039
685 1 1 0.0 23.302071 3.142821 15.128361
686 1 1 0.0 20.416928 1.997215 18.147888
687 1 2 0.0 22.289161 1.717105 17.291479
688 1 2 0.0 18.516508 2.287538 19.020806
689 1 2 0.0 19.928776 2.187622 15.952219
690 1 2 0.0 20.539976 4.590167 17.088297
691 1 1 0.0 19.454349 0.326324 15.072451
692 1 1 0.0 16.284154 -0.483054 18.169962
693 1 2 0.0 18.214814 -0.800488 17.269593
694 1 2 0.0 14.337256 -0.167071 19.075420
695 1 2 0.0 15.965191 -0.522398 16.004906
696 1 2 0.0 16.593064 1.793931 17.084485
697 1 1 0.0 21.027812 6.495447 17.987958
698 1 1 0.0 18.317214 5.491051 21.025626
699 1 2 0.0 20.222129 5.215527 20.159981
700 1 2 0.0 16.395320 5.774036 21.902005
701 1 2 0.0 17.583011 5.526150 18.832824
702 1 2 0.0 18.218798 7.932071 19.960830
703 1 1 0.0 17.087084 3.649309 17.952856
704 1 1 0.0 14.131089 2.961551 21.037606
705 1 2 0.0 16.069156 2.664614 20.146875
706 1 2 0.0 12.187884 3.254117 21.927587
707 1 2 0.0 13.572498 2.744582 18.863385
708 1 2 0.0 14.219036 5.101800 19.958932
709 1 1 0.0 18.723978 9.827170 20.847554
710 1 1 0.0 16.205286 8.977449 23.903363
711 1 2 0.0 18.131543 8.699605 23.028482
712 1 2 0.0 14.273017 9.259856 24.783203
713 1 2 0.0 15.232280 8.861168 21.713429
714 1 2 0.0 15.879297 11.261025 22.833363
715 1 1 0.0 14.725597 6.976378 20.833262
716 1 1 0.0 12.002099 6.420817 23.905249
717 1 2 0.0 13.936623 6.137709 23.024158
718 1 2 0.0 10.073390 6.696545 24.779755
719 1 2 0.0 11.209763 6.032737 21.721865
720 1 2 0.0 11.861193 8.421107 22.833378
721 1 1 0.0 16.391466 13.138624 23.707150
722 1 1 0.0 14.081359 12.456540 26.781100
723 1 2 0.0 16.018000 12.169702 25.896983
724 1 2 0.0 12.149611 12.745003 27.664401