
32670 atoms

1 atom types

-50.455884 50.453579 xlo xhi
-50.453037 50.455642 ylo yhi
0.000000 150.697551 zlo zhi

Masses

1 107.868200

Atoms

1 1 1 0.0 22.246101 32.805178 134.294443
2 1 1 0.0 26.379399 29.562637 135.289204
3 1 1 0.0 23.751077 32.080319 137.290530
4 1 1 0.0 27.530358 28.515751 138.398799
5 1 1 0.0 31.047996 24.613901 139.393560
6 1 1 0.0 28.889140 27.544111 141.394886
7 1 1 0.0 32.002889 23.385546 142.503155
8 1 1 0.0 34.801152 18.939430 143.497916
9 1 1 0.0 33.175415 22.195773 145.499242
10 1 1 0.0 35.531824 17.565823 146.607511
11 1 1 0.0 37.528205 12.706535 147.602272
12 1 1 0.0 36.483521 16.192999 149.603598
13 1 1 0.0 38.013112 11.228177 0.711867
14 1 1 0.0 39.148748 6.098991 1.706628
15 1 1 0.0 38.715920 9.712778 3.707954
16 1 1 0.0 39.373594 4.559471 4.816223
17 1 1 0.0 39.615001 -0.688380 5.810984
18 1 1 0.0 39.806790 2.946178 7.812310
19 1 1 0.0 39.573155 -2.243669 8.920579
20 1 1 0.0 38.913216 -7.455454 9.915340
21 1 1 0.0 39.723967 -3.907289 11.916666
22 1 1 0.0 38.605913 -8.980656 13.024935
23 1 1 0.0 37.064085 -14.002706 14.019696
24 1 1 0.0 38.469894 -10.645551 16.021022
25 1 1 0.0 36.500385 -15.452851 17.129291
26 1 1 0.0 34.122129 -20.137092 18.124052
27 1 1 0.0 36.081546 -17.069931 20.125378
28 1 1 0.0 33.318653 -21.469422 21.233647
29 1 1 0.0 30.174091 -25.677741 22.228408
30 1 1 0.0 32.629343 -22.991009 24.229734
31 1 1 0.0 29.154529 -26.852973 25.338003
32 1 1 0.0 25.336378 -30.461289 26.332764
33 1 1 0.0 28.215072 -28.234203 28.334090
34 1 1 0.0 24.130791 -31.444771 29.442359
35 1 1 0.0 19.751628 -34.346694 30.437120
36 1 1 0.0 22.968887 -32.644919 32.438446
37 1 1 0.0 18.395563 -35.109428 33.546715
38 1 1 0.0 13.584507 -37.219395 34.541476
39 1 1 0.0 17.045471 -36.093108 36.542802
40 1 1 0.0 12.117947 -37.738893 37.651071
41 1 1 0.0 7.016850 -38.994692 38.645832
42 1 1 0.0 10.619473 -38.477101 40.647158
43 1 1 0.0 5.483036 -39.255636 41.755427
44 1 1 0.0 0.242303 -39.620241 42.750188
45 1 1 0.0 3.880363 -39.726607 44.751514
46 1 1 0.0 -1.313540 -39.614938 45.859783
47 1 1 0.0 -6.539388 -39.077597 46.854544
48 1 1 0.0 -2.973158 -39.804784 48.855870
49 1 1 0.0 -8.071387 -38.806203 49.964139
50 1 1 0.0 -13.128267 -37.382761 50.958900
51 1 1 0.0 -9.739017 -38.709328 52.960226
52 1 1 0.0 -14.591251 -36.853278 54.068495
53 1 1 0.0 -19.330062 -34.585703 55.063256
54 1 1 0.0 -16.217723 -36.472537 57.064582
55 1 1 0.0 -20.680897 -33.813743 58.172851
56 1 1 0.0 -24.961916 -30.768895 59.167612
57 1 1 0.0 -22.218254 -33.160363 61.168938
58 1 1 0.0 -26.160771 -29.777219 62.277207
59 1 1 0.0 -29.857774 -26.044875 63.271968
60 1 1 0.0 -27.563686 -28.870464 65.273294
61 1 1 0.0 -30.869302 -24.862721 66.381563
62 1 1 0.0 -33.873283 -20.552928 67.376324
63 1 1 0.0 -32.096410 -23.729328 69.377650
64 1 1 0.0 -34.667659 -19.215153 70.485919
65 1 1 0.0 -36.890048 -14.454983 71.480680
66 1 1 0.0 -35.682779 -17.888538 73.482006
67 1 1 0.0 -37.443850 -13.001030 74.590275
68 1 1 0.0 -38.819119 -7.930837 75.585036
69 1 1 0.0 -38.217051 -11.520309 77.586362
70 1 1 0.0 -39.116018 -6.403576 78.694631
71 1 1 0.0 -39.603618 -1.172853 79.689392
72 1 1 0.0 -39.624503 -4.812407 81.690718
73 1 1 0.0 -39.634861 0.382686 82.798987
74 1 1 0.0 -39.220416 5.619713 83.793748
75 1 1 0.0 -39.863637 2.037387 85.795074
76 1 1 0.0 -38.985081 7.157664 86.903343
77 1 1 0.0 -37.680809 12.246583 87.898104
78 1 1 0.0 -38.927402 8.827110 89.899430
79 1 1 0.0 -37.185835 13.721601 91.007699
80 1 1 0.0 -35.030194 18.512366 92.002460
81 1 1 0.0 -36.843403 15.356567 94.003786
82 1 1 0.0 -34.290175 19.880960 95.112055
83 1 1 0.0 -31.346722 24.232317 96.106816
84 1 1 0.0 -33.673086 21.433240 98.108142
85 1 1 0.0 -30.383478 25.454134 99.216411
86 1 1 0.0 -26.739001 29.237784 100.211172
87 1 1 0.0 -29.509926 26.877960 102.212498
88 1 1 0.0 -25.580932 30.276799 103.320767
89 1 1 0.0 -21.342887 33.381182 104.315528
90 1 1 0.0 -24.476674 31.530190 106.316854
91 1 1 0.0 -20.024139 34.206761 107.425123
92 1 1 0.0 -15.317484 36.540346 108.419884
93 1 1 0.0 -18.721734 35.252761 110.421210
94 1 1 0.0 -13.876940 37.128146 111.529479
95 1 1 0.0 -8.840449 38.622126 112.524240
96 1 1 0.0 -12.414789 37.935913 114.525566
97 1 1 0.0 -7.320582 38.954817 115.633835
98 1 1 0.0 -2.102755 39.565144 116.628596
99 1 1 0.0 -5.741796 39.500535 118.629922
100 1 1 0.0 -0.548380 39.632915 119.738191
101 1 1 0.0 4.696938 39.341593 120.732952
102 1 1 0.0 1.100492 39.900494 122.734278
103 1 1 0.0 6.239992 39.142447 123.842547
104 1 1 0.0 11.358142 37.958066 124.837308
105 1 1 0.0 7.910332 39.123997 126.838634
106 1 1 0.0 12.844379 37.497875 127.946903
107 1 1 0.0 17.684455 35.455355 128.941664
108 1 1 0.0 14.486938 37.193939 130.942990
109 1 1 0.0 19.070053 34.747687 132.051259
110 1 1 0.0 23.489347 31.907253 133.046020
111 1 1 0.0 20.636400 34.167228 135.047346
112 1 1 0.0 25.089816 30.225863 132.286804
113 1 1 0.0 28.857655 26.799555 133.378556
114 1 1 0.0 29.890888 25.487968 136.391160
115 1 1 0.0 33.017017 21.467579 137.482912
116 1 1 0.0 33.810635 19.998566 140.495516
117 1 1 0.0 36.202881 15.502638 141.587268
118 1 1 0.0 36.733484 13.919512 144.599872
119 1 1 0.0 38.321312 9.080606 145.691624
120 1 1 0.0 38.573256 7.430044 148.704228
121 1 1 0.0 39.309850 2.390834 149.795980
122 1 1 0.0 39.275706 0.721504 2.808584
123 1 1 0.0 39.139347 -4.369430 3.900336
124 1 1 0.0 38.820122 -6.008310 6.912940
125 1 1 0.0 37.814830 -11.000864 8.004692
126 1 1 0.0 37.219937 -12.560970 11.017296
127 1 1 0.0 35.375353 -17.307939 12.109048
128 1 1 0.0 34.522331 -18.743273 15.121652
129 1 1 0.0 31.892843 -23.104695 16.213404
130 1 1 0.0 30.806844 -24.372936 19.226008
131 1 1 0.0 27.469981 -28.220215 20.317760
132 1 1 0.0 26.183025 -29.283969 23.330364
133 1 1 0.0 22.237174 -32.503669 24.422116
134 1 1 0.0 20.787206 -33.331572 27.434720
135 1 1 0.0 16.348709 -35.828760 28.526472
136 1 1 0.0 14.778482 -36.396403 31.539076
137 1 1 0.0 9.978207 -38.097451 32.630828
138 1 1 0.0 8.334019 -38.388094 35.643432
139 1 1 0.0 3.313501 -39.242848 36.735184
140 1 1 0.0 1.643829 -39.247923 39.747788
141 1 1 0.0 -3.448904 -39.231179 40.839540
142 1 1 0.0 -5.094829 -38.950538 43.852144
143 1 1 0.0 -10.109618 -38.062790 44.943896
144 1 1 0.0 -11.683268 -37.504705 47.956500
145 1 1 0.0 -16.472253 -35.772129 49.048252
146 1 1 0.0 -17.927228 -34.953057 52.060856
147 1 1 0.0 -22.349208 -32.426737 53.152608
148 1 1 0.0 -23.642608 -31.370826 56.165212
149 1 1 0.0 -27.567203 -28.125250 57.256964
150 1 1 0.0 -28.660893 -26.863635 60.269568
151 1 1 0.0 -31.972385 -22.994498 61.361320
152 1 1 0.0 -32.834118 -21.564377 64.373924
153 1 1 0.0 -35.434870 -17.185759 65.465676
154 1 1 0.0 -36.039238 -15.629299 68.478280
155 1 1 0.0 -37.852568 -10.870303 69.570032
156 1 1 0.0 -38.181751 -9.233395 72.582636
157 1 1 0.0 -39.154192 -4.234338 73.674388
158 1 1 0.0 -39.198484 -2.565246 76.686992
159 1 1 0.0 -39.301365 2.526474 77.778744
160 1 1 0.0 -39.059461 4.178538 80.791348
161 1 1 0.0 -38.289748 9.212795 81.883100
162 1 1 0.0 -37.768780 10.799118 84.895704
163 1 1 0.0 -36.149167 15.627479 85.987456
164 1 1 0.0 -35.364496 17.101290 89.000060
165 1 1 0.0 -32.942738 21.581390 90.091812
166 1 1 0.0 -31.917499 22.899235 93.104416
167 1 1 0.0 -28.765001 26.898980 94.196168
168 1 1 0.0 -27.529423 28.022001 97.208772
169 1 1 0.0 -23.739135 31.423460 98.300524
170 1 1 0.0 -22.329649 32.318547 101.313128
171 1 1 0.0 -18.013327 35.021428 102.404880
172 1 1 0.0 -16.471491 35.662188 105.417484
173 1 1 0.0 -11.756400 37.586799 106.509236
174 1 1 0.0 -10.127676 37.954339 109.521840
175 1 1 0.0 -5.152840 39.043932 110.613592
176 1 1 0.0 -3.485249 39.127416 113.626196
177 1 1 0.0 1.602651 39.349865 114.717948
178 1 1 0.0 3.259940 39.146832 117.730552
179 1 1 0.0 8.310888 38.495578 118.822304
180 1 1 0.0 9.909011 38.012014 121.834908
181 1 1 0.0 14.774081 36.506259 122.926660
182 1 1 0.0 16.265916 35.756421 125.939264
183 1 1 0.0 20.801663 33.440562 127.031016
184 1 1 0.0 22.143226 32.446559 130.043620
185 1 1 0.0 26.215915 29.388879 131.135372
186 1 1 0.0 27.529631 27.723569 130.564315
187 1 1 0.0 30.590417 23.730209 131.973715
188 1 1 0.0 28.352411 25.950271 133.682459
189 1 1 0.0 26.880273 26.758416 131.022757
190 1 1 0.0 31.866649 22.605166 134.668671
191 1 1 0.0 34.199139 18.147048 136.078071
192 1 1 0.0 32.373928 20.717252 137.786815
193 1 1 0.0 31.061748 21.765333 135.127113
194 1 1 0.0 35.264087 16.820256 138.773027
195 1 1 0.0 36.799508 12.028825 140.182427
196 1 1 0.0 35.440909 14.873390 141.891171
197 1 1 0.0 34.327376 16.130504 139.231469
198 1 1 0.0 37.621773 10.539405 142.877383
199 1 1 0.0 38.314854 5.555936 144.286783
200 1 1 0.0 37.462923 8.590990 145.995527
201 1 1 0.0 36.580871 10.020071 143.335825
202 1 1 0.0 38.870191 3.947802 146.981739
203 1 1 0.0 38.700496 -1.080769 148.391139
204 1 1 0.0 38.380354 2.055287 0.099883
205 1 1 0.0 37.755787 3.614200 147.440181
206 1 1 0.0 38.972531 -2.760200 1.086095
207 1 1 0.0 37.945064 -7.685608 2.495495
208 1 1 0.0 38.166149 -4.541015 4.204239
209 1 1 0.0 37.817485 -2.898236 1.544537
210 1 1 0.0 37.925776 -9.386819 5.190451
211 1 1 0.0 36.070832 -14.063838 6.599851
212 1 1 0.0 36.826626 -11.003427 8.308595
213 1 1 0.0 36.764143 -9.325218 5.648893
214 1 1 0.0 35.760790 -15.736670 9.294807
215 1 1 0.0 33.133060 -20.027400 10.704207
216 1 1 0.0 34.401279 -17.141405 12.412951
217 1 1 0.0 34.626821 -15.477248 9.753249
218 1 1 0.0 32.541406 -21.622529 13.399163
219 1 1 0.0 29.218369 -25.400459 14.808563
220 1 1 0.0 30.961619 -22.773974 16.517307
221 1 1 0.0 31.468536 -21.172935 13.857605
222 1 1 0.0 28.362547 -26.870854 17.503519
223 1 1 0.0 24.442183 -30.024592 18.912919
224 1 1 0.0 26.609064 -27.735058 20.621663
225 1 1 0.0 27.382409 -26.244344 17.961961
226 1 1 0.0 23.347426 -31.326898 21.607875
227 1 1 0.0 18.945324 -33.763458 23.017275
228 1 1 0.0 21.471948 -31.878381 24.726019
229 1 1 0.0 22.488919 -30.541946 22.066317
230 1 1 0.0 17.643913 -34.859277 25.712231
231 1 1 0.0 12.889868 -36.506818 27.121631
232 1 1 0.0 15.701737 -35.081779 28.830375
233 1 1 0.0 16.932349 -33.939026 26.170673
234 1 1 0.0 11.420173 -37.363840 29.816587
235 1 1 0.0 6.454358 -38.173783 31.225987
236 1 1 0.0 9.468565 -37.250799 32.934731
237 1 1 0.0 10.876533 -36.335423 30.275029
238 1 1 0.0 4.859712 -38.766739 33.920943
239 1 1 0.0 -0.171458 -38.715204 35.330343
240 1 1 0.0 2.956214 -38.321489 37.039087
241 1 1 0.0 4.500026 -37.660479 34.379385
242 1 1 0.0 -1.844036 -39.026611 38.025299
243 1 1 0.0 -6.792218 -38.115118 39.434699
244 1 1 0.0 -3.643300 -38.262281 41.143443
245 1 1 0.0 -2.009164 -37.875126 38.483741
246 1 1 0.0 -8.493413 -38.135794 42.129655
247 1 1 0.0 -13.212712 -36.391217 43.539055
248 1 1 0.0 -10.135392 -37.074918 45.247799
249 1 1 0.0 -8.459114 -36.973035 42.588097
250 1 1 0.0 -14.892364 -36.120553 46.234011
251 1 1 0.0 -19.243632 -33.594331 47.643411
252 1 1 0.0 -16.328645 -34.794412 49.352155
253 1 1 0.0 -14.659649 -34.980804 46.692453
254 1 1 0.0 -20.852218 -33.040307 50.338367
255 1 1 0.0 -24.707158 -29.806925 51.747767
256 1 1 0.0 -22.040452 -31.488001 53.456511
257 1 1 0.0 -20.427948 -31.957172 50.796809
258 1 1 0.0 -26.197249 -28.985876 54.442723
259 1 1 0.0 -29.442201 -25.140669 55.852123
260 1 1 0.0 -27.102402 -27.253175 57.560867
261 1 1 0.0 -25.593934 -27.991292 54.901165
262 1 1 0.0 -30.769861 -24.076804 58.547079
263 1 1 0.0 -33.309148 -19.733147 59.956479
264 1 1 0.0 -31.365245 -22.214797 61.665223
265 1 1 0.0 -30.005291 -23.200096 59.005521
266 1 1 0.0 -34.435232 -18.457834 62.651435
267 1 1 0.0 -36.193983 -13.743799 64.060835
268 1 1 0.0 -34.703291 -16.521420 65.769579
269 1 1 0.0 -33.531948 -17.724851 63.109877
270 1 1 0.0 -37.085290 -12.294639 66.755791
271 1 1 0.0 -38.011649 -7.349218 68.165191
272 1 1 0.0 -37.018120 -10.340914 69.873935
273 1 1 0.0 -36.069926 -11.726994 67.214233
274 1 1 0.0 -38.641897 -5.768940 70.860147
275 1 1 0.0 -38.708550 -0.737948 72.269547
276 1 1 0.0 -38.241480 -3.855509 73.978291
277 1 1 0.0 -37.544390 -5.383369 71.318589
278 1 1 0.0 -39.059158 0.926854 74.964503
279 1 1 0.0 -38.264141 5.895081 76.373903
280 1 1 0.0 -38.337300 2.743575 78.082647
281 1 1 0.0 -37.911869 1.118983 75.422945
282 1 1 0.0 -38.324770 7.595321 79.068859
283 1 1 0.0 -36.691523 12.354295 80.478259
284 1 1 0.0 -37.302754 9.261765 82.187003
285 1 1 0.0 -37.161526 7.588342 79.527301
286 1 1 0.0 -36.460386 14.039841 83.173215
287 1 1 0.0 -34.037065 18.449245 84.582615
288 1 1 0.0 -35.168346 15.506875 86.291359
289 1 1 0.0 -35.315484 13.833961 83.631657
290 1 1 0.0 -33.520977 20.070401 87.277571
291 1 1 0.0 -30.379033 24.000225 88.686971
292 1 1 0.0 -31.997009 21.294768 90.395715
293 1 1 0.0 -32.428176 19.671689 87.736013
294 1 1 0.0 -29.593211 25.509189 91.381927
295 1 1 0.0 -25.825283 28.843564 92.791327
296 1 1 0.0 -27.882249 26.454791 94.500071
297 1 1 0.0 -28.584730 24.929402 91.840369
298 1 1 0.0 -24.792896 30.195847 95.486283
299 1 1 0.0 -20.510082 32.836458 96.895683
300 1 1 0.0 -22.945387 30.834801 98.604427
301 1 1 0.0 -23.898472 29.452079 95.944725
302 1 1 0.0 -19.261570 33.992187 99.590639
303 1 1 0.0 -14.590146 35.861178 101.000039
304 1 1 0.0 -17.331987 34.305655 102.708783
305 1 1 0.0 -18.507573 33.106369 100.049081
306 1 1 0.0 -13.162321 36.786277 103.694995
307 1 1 0.0 -8.240024 37.828540 105.104395
308 1 1 0.0 -11.207558 36.765016 106.813139
309 1 1 0.0 -12.570984 35.784526 104.153437
310 1 1 0.0 -6.674985 38.495733 107.799351
311 1 1 0.0 -1.646946 38.680538 109.208751
312 1 1 0.0 -4.752677 38.140370 110.917495
313 1 1 0.0 -6.263742 37.407586 108.257793
314 1 1 0.0 0.009161 39.070152 111.903707
315 1 1 0.0 4.994691 38.392050 113.313107
316 1 1 0.0 1.842336 38.391165 115.021851
317 1 1 0.0 0.228185 37.927692 112.362149
318 1 1 0.0 6.693037 38.492598 116.008063
319 1 1 0.0 11.489061 36.971583 117.417463
320 1 1 0.0 8.383028 37.510007 119.126207
321 1 1 0.0 6.713383 37.329511 116.466505
322 1 1 0.0 13.179571 36.780100 120.112419
323 1 1 0.0 17.644679 34.461018 121.521819
324 1 1 0.0 14.676548 35.522876 123.230563
325 1 1 0.0 13.000640 35.630679 120.570861
326 1 1 0.0 19.277509 33.983150 124.216775
327 1 1 0.0 23.280048 30.934379 125.626175
328 1 1 0.0 20.537334 32.488362 127.334919
329 1 1 0.0 18.904576 32.881286 124.675217
330 1 1 0.0 24.807054 30.184216 128.321131
331 1 1 0.0 28.229011 26.495648 129.730531
332 1 1 0.0 25.792583 28.495937 131.439275
333 1 1 0.0 24.251115 29.162396 128.779573
334 1 1 0.0 29.197405 24.814324 129.386882
335 1 1 0.0 31.708717 20.713815 131.004286
336 1 1 0.0 29.660133 22.765740 132.569603
337 1 1 0.0 28.178107 23.697919 130.106497
338 1 1 0.0 33.012130 19.453493 133.491238
339 1 1 0.0 34.784917 14.983806 135.108642
340 1 1 0.0 33.117571 17.355947 136.673959
341 1 1 0.0 31.816868 18.527925 134.210853
342 1 1 0.0 35.853502 13.519080 137.595594
343 1 1 0.0 36.835492 8.812004 139.212998
344 1 1 0.0 35.598546 11.434419 140.778315
345 1 1 0.0 34.517518 12.811639 138.315209
346 1 1 0.0 37.637742 7.186061 141.699950
347 1 1 0.0 37.799982 2.380382 143.317354
348 1 1 0.0 37.029907 5.175750 144.882671
349 1 1 0.0 36.200427 6.717606 142.419565
350 1 1 0.0 38.312244 0.641162 145.804306
351 1 1 0.0 37.649950 -4.121425 147.421710
352 1 1 0.0 37.369451 -1.235525 148.987027
353 1 1 0.0 36.815976 0.425505 146.523921
354 1 1 0.0 37.857119 -5.922640 149.908662
355 1 1 0.0 36.389819 -10.501713 1.526066
356 1 1 0.0 36.607166 -7.610371 3.091383
357 1 1 0.0 36.346015 -5.879141 0.628277
358 1 1 0.0 36.285787 -12.311816 4.013018
359 1 1 0.0 34.056743 -16.572360 5.630422
360 1 1 0.0 34.765529 -13.760827 7.195739
361 1 1 0.0 34.804402 -12.010442 4.732633
362 1 1 0.0 33.644577 -18.337980 8.117374
363 1 1 0.0 30.719514 -22.154376 9.734778
364 1 1 0.0 31.898839 -19.505548 11.300095
365 1 1 0.0 32.236590 -17.787619 8.836989
366 1 1 0.0 30.011367 -23.823454 12.221730
367 1 1 0.0 26.476527 -27.083175 13.839134
368 1 1 0.0 28.091621 -24.675154 15.404451
369 1 1 0.0 28.718291 -23.040332 12.941345
370 1 1 0.0 25.493279 -28.606500 16.326086
371 1 1 0.0 21.452887 -31.213435 17.943490
372 1 1 0.0 23.456128 -29.117219 19.508807
373 1 1 0.0 24.353240 -27.613707 17.045701
374 1 1 0.0 20.223528 -32.546091 20.430442
375 1 1 0.0 15.796714 -34.423374 22.047846
376 1 1 0.0 18.129038 -32.700770 23.613163
377 1 1 0.0 19.270141 -31.372899 21.150057
378 1 1 0.0 14.357492 -35.526068 24.534798
379 1 1 0.0 9.674780 -36.618350 26.152202
380 1 1 0.0 12.267417 -35.320148 27.717519
381 1 1 0.0 13.618866 -34.207069 25.254413
382 1 1 0.0 8.068129 -37.458569 28.639154
383 1 1 0.0 3.267587 -37.733642 30.256558
384 1 1 0.0 6.044095 -36.898120 31.821875
385 1 1 0.0 7.566043 -36.032653 29.358769
386 1 1 0.0 1.540879 -38.286614 32.743510
387 1 1 0.0 -3.235950 -37.736368 34.360914
388 1 1 0.0 -0.357436 -37.388161 35.926231
389 1 1 0.0 1.290137 -36.795824 33.463125
390 1 1 0.0 -5.031803 -37.985788 36.847866
391 1 1 0.0 -9.644076 -36.626448 38.465270
392 1 1 0.0 -6.748427 -36.775822 40.030587
393 1 1 0.0 -5.023809 -36.474079 37.567481
394 1 1 0.0 -11.456124 -36.564961 40.952222
395 1 1 0.0 -15.767849 -34.436606 42.569626
396 1 1 0.0 -12.940443 -35.079158 44.134943
397 1 1 0.0 -11.189628 -35.076906 41.671837
398 1 1 0.0 -17.542664 -34.066025 45.056578
399 1 1 0.0 -21.426711 -31.231409 46.673982
400 1 1 0.0 -18.750914 -32.348193 48.239299
401 1 1 0.0 -17.025525 -32.645499 45.776193
402 1 1 0.0 -23.111963 -30.562662 49.160934
403 1 1 0.0 -26.453812 -27.105363 50.778338
404 1 1 0.0 -24.008519 -28.663451 52.343655
405 1 1 0.0 -22.359428 -29.251548 49.880549
406 1 1 0.0 -27.999811 -26.158166 53.265290
407 1 1 0.0 -30.700929 -22.180122 54.882694
408 1 1 0.0 -28.558238 -24.133574 56.448011
409 1 1 0.0 -27.034070 -24.995123 53.984905
410 1 1 0.0 -32.062093 -20.982404 57.369646
411 1 1 0.0 -34.042838 -16.600907 58.987050
412 1 1 0.0 -32.265926 -18.892125 60.552367
413 1 1 0.0 -30.911619 -20.001724 58.089261
414 1 1 0.0 -35.179033 -15.187982 61.474002
415 1 1 0.0 -36.381002 -10.532217 63.091406
416 1 1 0.0 -35.022261 -13.093647 64.656723
417 1 1 0.0 -33.877747 -14.418578 62.193617
418 1 1 0.0 -37.258727 -8.945745 65.578358
419 1 1 0.0 -37.646482 -4.152988 67.195762
420 1 1 0.0 -36.745974 -6.909106 68.761079
421 1 1 0.0 -35.844998 -8.410305 66.297973
422 1 1 0.0 -38.239858 -2.439746 69.682714
423 1 1 0.0 -37.801965 2.348690 71.300118
424 1 1 0.0 -37.386242 -0.520851 72.865435
425 1 1 0.0 -36.755369 -2.154056 70.402329
426 1 1 0.0 -38.093497 4.138189 73.787070
427 1 1 0.0 -36.842867 8.781119 75.404474
428 1 1 0.0 -36.924186 5.882760 76.969791
429 1 1 0.0 -36.582018 4.165705 74.506685
430 1 1 0.0 -36.823959 10.594110 77.891426
431 1 1 0.0 -34.797467 14.954638 79.508830
432 1 1 0.0 -35.373430 12.112920 81.074147
433 1 1 0.0 -35.330055 10.362641 78.611041
434 1 1 0.0 -34.468676 16.737667 81.995782
435 1 1 0.0 -31.726072 20.687224 83.613186
436 1 1 0.0 -32.779698 17.985933 85.178503
437 1 1 0.0 -33.036395 16.254037 82.715397
438 1 1 0.0 -31.097093 22.387718 86.100138
439 1 1 0.0 -27.719243 25.809852 87.717542
440 1 1 0.0 -29.219465 23.328636 89.282859
441 1 1 0.0 -29.768666 21.666187 86.819753
442 1 1 0.0 -26.808621 27.377673 90.204494
443 1 1 0.0 -22.895119 30.171483 91.821898
444 1 1 0.0 -24.797703 27.983500 93.387215
445 1 1 0.0 -25.623215 26.439516 90.924109
446 1 1 0.0 -21.729703 31.560404 94.308850
447 1 1 0.0 -17.395939 33.643517 95.926254
448 1 1 0.0 -19.644788 31.813278 97.491571
449 1 1 0.0 -20.722270 30.433282 95.028465
450 1 1 0.0 -16.010091 34.812585 98.413206
451 1 1 0.0 -11.383843 36.123579 100.030610
452 1 1 0.0 -13.912651 34.705050 101.595927
453 1 1 0.0 -15.210335 33.529731 99.132821
454 1 1 0.0 -9.818425 37.038327 102.517562
455 1 1 0.0 -5.036098 37.538548 104.134966
456 1 1 0.0 -7.770304 36.573553 105.700283
457 1 1 0.0 -9.249927 35.637564 103.237177
458 1 1 0.0 -3.337266 38.172002 106.621918
459 1 1 0.0 1.460135 37.846702 108.239322
460 1 1 0.0 -1.398851 37.363693 109.804639
461 1 1 0.0 -3.016787 36.694633 107.341533
462 1 1 0.0 3.242292 38.180187 110.726274
463 1 1 0.0 7.913316 37.038957 112.343678
464 1 1 0.0 5.013847 37.052176 113.908995
465 1 1 0.0 3.305302 36.669771 111.445889
466 1 1 0.0 9.726251 37.062638 114.830630
467 1 1 0.0 14.133175 35.139127 116.448034
468 1 1 0.0 11.278712 35.648184 118.013351
469 1 1 0.0 9.529935 35.563710 115.550245
470 1 1 0.0 15.923435 34.852307 118.934986
471 1 1 0.0 19.936321 32.203229 120.552390
472 1 1 0.0 17.211028 33.193115 122.117707
473 1 1 0.0 15.473580 33.409062 119.654601
474 1 1 0.0 21.651120 31.614366 123.039342
475 1 1 0.0 25.151650 28.317828 124.656746
476 1 1 0.0 22.635881 29.759356 126.222063
477 1 1 0.0 20.960991 30.269357 123.758957
478 1 1 0.0 26.740428 27.444282 127.143698
479 1 1 0.0 29.625389 23.597483 128.761102
480 1 1 0.0 27.393321 25.448150 130.326419
481 1 1 0.0 25.830373 26.237168 127.863313
482 1 1 0.0 30.296225 21.905080 128.611124
483 1 1 0.0 32.295247 17.743245 130.411674
484 1 1 0.0 30.432092 19.627378 131.836392
485 1 1 0.0 28.971473 20.637422 129.546387
486 1 1 0.0 33.597046 16.399154 132.715480
487 1 1 0.0 34.854603 11.956687 134.516030
488 1 1 0.0 33.341247 14.131787 135.940748
489 1 1 0.0 32.074957 15.376820 133.650743
490 1 1 0.0 35.907267 10.409704 136.819836
491 1 1 0.0 36.386280 5.817590 138.620386
492 1 1 0.0 35.267344 8.219525 140.045104
493 1 1 0.0 34.232719 9.662836 137.755099
494 1 1 0.0 37.158771 4.113326 140.924192
495 1 1 0.0 36.845117 -0.493037 142.724742
496 1 1 0.0 36.153593 2.064912 144.149460
497 1 1 0.0 35.381139 3.663946 141.859455
498 1 1 0.0 37.314659 -2.304332 145.028548
499 1 1 0.0 36.217585 -6.789127 146.829098
500 1 1 0.0 35.973863 -4.150585 148.253816
501 1 1 0.0 35.486354 -2.442975 145.963811
502 1 1 0.0 36.370334 -8.654047 149.132904
503 1 1 0.0 34.522187 -12.885041 0.933454
504 1 1 0.0 34.733452 -10.243702 2.358172
505 1 1 0.0 34.545264 -8.477865 0.068167
506 1 1 0.0 34.353639 -14.748600 3.237260
507 1 1 0.0 31.808912 -18.601044 5.037810
508 1 1 0.0 32.468935 -16.034787 6.462528
509 1 1 0.0 32.585616 -14.262787 4.172523
510 1 1 0.0 31.324037 -20.408294 7.341616
511 1 1 0.0 28.157759 -23.768599 9.142166
512 1 1 0.0 29.247080 -21.353090 10.566884
513 1 1 0.0 29.665189 -19.627175 8.276879
514 1 1 0.0 27.370853 -25.466256 11.445972
515 1 1 0.0 23.676382 -28.235344 13.246522
516 1 1 0.0 25.162883 -26.041803 14.671240
517 1 1 0.0 25.870092 -24.412861 12.381235
518 1 1 0.0 22.610646 -29.773351 15.550328
519 1 1 0.0 18.496913 -31.869576 17.350878
520 1 1 0.0 20.336764 -29.962680 18.775596
521 1 1 0.0 21.312222 -28.478740 16.485591
522 1 1 0.0 17.183771 -33.202587 19.654684
523 1 1 0.0 12.772068 -34.564143 21.455234
524 1 1 0.0 14.911021 -33.000115 22.879952
525 1 1 0.0 16.125967 -31.704931 20.589947
526 1 1 0.0 11.250236 -35.652853 23.759040
527 1 1 0.0 6.670641 -36.239595 25.559590
528 1 1 0.0 9.045631 -35.064551 26.984308
529 1 1 0.0 10.464242 -33.996310 24.694303
530 1 1 0.0 4.984992 -37.051904 27.863396
531 1 1 0.0 0.372532 -36.846532 29.663946
532 1 1 0.0 2.913532 -36.095117 31.088664
533 1 1 0.0 4.493982 -35.285317 28.798659
534 1 1 0.0 -1.427234 -37.358490 31.967752
535 1 1 0.0 -5.936560 -36.367059 33.768302
536 1 1 0.0 -3.304471 -36.061428 35.193020
537 1 1 0.0 -1.608783 -35.533946 32.903015
538 1 1 0.0 -7.797378 -36.563570 36.072108
539 1 1 0.0 -12.070615 -34.815312 37.872658
540 1 1 0.0 -9.425043 -34.964478 39.297376
541 1 1 0.0 -7.664113 -34.734865 37.007371
542 1 1 0.0 -13.937619 -34.690583 40.176464
543 1 1 0.0 -17.848771 -32.237045 41.977014
544 1 1 0.0 -15.267719 -32.836609 43.401732
545 1 1 0.0 -13.493468 -32.911636 41.111727
546 1 1 0.0 -19.666912 -31.794753 44.280820
547 1 1 0.0 -23.100661 -28.708277 46.081370
548 1 1 0.0 -20.660231 -29.740561 47.506088
549 1 1 0.0 -18.924972 -30.118016 45.216083
550 1 1 0.0 -24.816332 -27.961463 48.385176
551 1 1 0.0 -27.671433 -24.333053 50.185726
552 1 1 0.0 -25.443582 -25.767621 51.610444
553 1 1 0.0 -23.798479 -26.436374 49.320439
554 1 1 0.0 -29.234049 -23.303737 52.489532
555 1 1 0.0 -31.426321 -19.240376 54.290082
556 1 1 0.0 -29.476735 -21.034929 55.714800
557 1 1 0.0 -27.970293 -21.975263 53.424795
558 1 1 0.0 -32.789807 -17.958906 56.593888
559 1 1 0.0 -34.254612 -13.580401 58.394438
560 1 1 0.0 -32.640775 -15.682027 59.819156
561 1 1 0.0 -31.317411 -16.866217 57.529151
562 1 1 0.0 -35.378767 -12.084561 60.698244
563 1 1 0.0 -36.072914 -7.520011 62.498794
564 1 1 0.0 -34.842409 -9.866746 63.923512
565 1 1 0.0 -33.741143 -11.259874 61.633507
566 1 1 0.0 -36.924592 -5.853907 64.802600
567 1 1 0.0 -36.827616 -1.237896 66.603150
568 1 1 0.0 -36.016725 -3.760545 68.027868
569 1 1 0.0 -35.170026 -5.321538 65.737863
570 1 1 0.0 -37.381706 0.549349 68.906956
571 1 1 0.0 -36.496466 5.080718 70.707506
572 1 1 0.0 -36.129096 2.456534 72.132224
573 1 1 0.0 -35.561930 0.773703 69.842219
574 1 1 0.0 -36.736630 6.936407 73.011312
575 1 1 0.0 -35.089226 11.249529 74.811862
576 1 1 0.0 -35.176211 8.601182 76.236580
577 1 1 0.0 -34.905300 6.846132 73.946575
578 1 1 0.0 -35.008384 13.118947 77.115668
579 1 1 0.0 -32.647390 17.086650 78.916218
580 1 1 0.0 -33.186164 14.492228 80.340936
581 1 1 0.0 -33.219496 12.716704 78.050931
582 1 1 0.0 -32.247925 18.914678 81.220024
583 1 1 0.0 -29.242955 22.419976 83.020574
584 1 1 0.0 -30.217632 19.955973 84.445292
585 1 1 0.0 -30.554224 18.212327 82.155287
586 1 1 0.0 -28.536645 24.152715 85.324380
587 1 1 0.0 -24.976298 27.092254 87.124930
588 1 1 0.0 -26.358141 24.831322 88.549648
589 1 1 0.0 -26.988069 23.170965 86.259643
590 1 1 0.0 -23.983969 28.678616 89.428736
591 1 1 0.0 -19.973222 30.965725 91.229286
592 1 1 0.0 -21.721487 28.974526 92.654004
593 1 1 0.0 -22.626178 27.446412 90.363999
594 1 1 0.0 -18.724132 32.358935 93.533092
595 1 1 0.0 -14.381240 33.926179 95.333642
596 1 1 0.0 -16.444381 32.263423 96.758360
597 1 1 0.0 -17.597159 30.912610 94.468355
598 1 1 0.0 -12.912218 35.085159 97.637448
599 1 1 0.0 -8.365232 35.886329 99.437998
600 1 1 0.0 -10.682416 34.601042 100.862716
601 1 1 0.0 -12.049293 33.467357 98.572711
602 1 1 0.0 -6.719592 36.776906 101.741804
603 1 1 0.0 -2.102577 36.788380 103.542354
604 1 1 0.0 -4.605483 35.918459 104.967072
605 1 1 0.0 -6.146157 35.035328 102.677067
606 1 1 0.0 -0.328840 37.384296 105.846160
607 1 1 0.0 4.222073 36.605735 107.646710
608 1 1 0.0 1.607241 36.176829 109.071428
609 1 1 0.0 -0.061803 35.570292 106.781423
610 1 1 0.0 6.071608 36.889420 109.950516
611 1 1 0.0 10.422235 35.343779 111.751066
612 1 1 0.0 7.772576 35.368534 113.175784
613 1 1 0.0 6.024373 35.056474 110.885779
614 1 1 0.0 12.293036 35.306869 114.054872
615 1 1 0.0 16.315101 33.039722 115.855422
616 1 1 0.0 13.708739 33.517408 117.280140
617 1 1 0.0 11.932922 33.509026 114.990135
618 1 1 0.0 18.152007 32.683304 118.159228
619 1 1 0.0 21.726920 29.761496 119.959778
620 1 1 0.0 19.240703 30.678029 121.384496
621 1 1 0.0 17.489632 30.973573 119.094491
622 1 1 0.0 23.475771 29.096081 122.263584
623 1 1 0.0 26.498126 25.605761 124.064134
624 1 1 0.0 24.205360 26.934117 125.488852
625 1 1 0.0 22.530665 27.524872 123.198847
626 1 1 0.0 28.107358 24.650967 126.367940
627 1 1 0.0 30.488042 20.695047 128.168490
628 1 1 0.0 28.456329 22.396060 129.593208
629 1 1 0.0 26.907387 23.264608 127.303203
630 1 1 0.0 30.886874 18.995835 128.194130
631 1 1 0.0 32.393230 14.814775 130.165250
632 1 1 0.0 30.725524 16.530252 131.442269
633 1 1 0.0 29.301377 17.576925 129.313478
634 1 1 0.0 33.681283 13.431752 132.298486
635 1 1 0.0 34.450147 9.054627 134.269606
636 1 1 0.0 33.100506 11.030121 135.546625
637 1 1 0.0 31.876416 12.305003 133.417834
638 1 1 0.0 35.482607 7.471637 136.402842
639 1 1 0.0 35.491310 3.027507 138.373962
640 1 1 0.0 34.499528 5.204769 139.650981
641 1 1 0.0 33.511587 6.670271 137.522190
642 1 1 0.0 36.237736 1.291223 140.507198
643 1 1 0.0 35.486022 -3.088879 142.478318
644 1 1 0.0 34.881341 -0.774043 143.755337
645 1 1 0.0 34.158678 0.838867 141.626546
646 1 1 0.0 35.924405 -4.927262 144.611554
647 1 1 0.0 34.434437 -9.114190 146.582674
648 1 1 0.0 34.234686 -6.730033 147.859693
649 1 1 0.0 33.798609 -5.017270 145.730902
650 1 1 0.0 34.551852 -11.000468 148.715910
651 1 1 0.0 32.367562 -14.870772 0.687030
652 1 1 0.0 32.578630 -12.487590 1.964049
653 1 1 0.0 32.441997 -10.725474 149.835258
654 1 1 0.0 32.160547 -16.749328 2.820266
655 1 1 0.0 29.346337 -20.188893 4.791386
656 1 1 0.0 29.962003 -17.876954 6.068405
657 1 1 0.0 30.128841 -16.117440 3.939614
658 1 1 0.0 28.820996 -22.004339 6.924622
659 1 1 0.0 25.459844 -24.911749 8.895742
660 1 1 0.0 26.461953 -22.739220 10.172761
661 1 1 0.0 26.927345 -21.034188 8.043970
662 1 1 0.0 24.631666 -26.610558 11.028978
663 1 1 0.0 20.822674 -28.900089 13.000098
664 1 1 0.0 22.181679 -26.931026 14.277117
665 1 1 0.0 22.931902 -25.330749 12.148326
666 1 1 0.0 19.716078 -30.432171 15.133334
667 1 1 0.0 15.571553 -32.036318 17.104454
668 1 1 0.0 17.247385 -30.328778 18.381473
669 1 1 0.0 18.260319 -28.880439 16.252682
670 1 1 0.0 14.219166 -33.356500 19.237690
671 1 1 0.0 9.861308 -34.227964 21.208810
672 1 1 0.0 11.804556 -32.832294 22.485829
673 1 1 0.0 13.050334 -31.578596 20.357038
674 1 1 0.0 8.303006 -35.297321 23.342046
675 1 1 0.0 3.860306 -35.410407 25.313166
676 1 1 0.0 6.013672 -34.367758 26.590185
677 1 1 0.0 7.455564 -33.345667 24.461394
678 1 1 0.0 2.142034 -36.197409 27.446402
679 1 1 0.0 -2.254517 -35.548784 29.417522
680 1 1 0.0 0.045477 -34.889898 30.694541
681 1 1 0.0 1.640969 -34.129550 28.565750
682 1 1 0.0 -4.082095 -36.030227 31.550758
683 1 1 0.0 -8.302866 -34.639015 33.521878
684 1 1 0.0 -5.924058 -34.383319 34.798897
685 1 1 0.0 -4.222010 -33.907132 32.670106
686 1 1 0.0 -10.185865 -34.800703 35.655114
687 1 1 0.0 -14.106407 -32.707923 37.626234
688 1 1 0.0 -11.718925 -32.862956 38.903253
689 1 1 0.0 -9.960504 -32.684971 36.774462
690 1 1 0.0 -15.989307 -32.545089 39.759470
691 1 1 0.0 -19.494024 -29.812446 41.730590
692 1 1 0.0 -17.168262 -30.373638 43.007609
693 1 1 0.0 -15.405315 -30.499102 40.878818
694 1 1 0.0 -21.321309 -29.329891 43.863826
695 1 1 0.0 -24.306865 -26.037957 45.834946
696 1 1 0.0 -22.111397 -26.988760 47.111965
697 1 1 0.0 -20.395905 -27.413975 44.983174
698 1 1 0.0 -26.024658 -25.249910 47.968182