
50286 atoms
116 bonds

4 atom types
1 bond types

-25.871892 229.167074 xlo xhi
-76.712796 178.364142 ylo yhi
0.999569 205.022343 zlo zhi

Masses

1 28.0855
2 15.9994
3 15.9994
4 1.0080

Atoms

1       1 1 0.0 132.658309 92.787475 18.432270
2       1 1 0.0 123.455227 97.914266 13.948910
3       1 1 0.0 132.504010 91.310324 15.620040
4       1 1 0.0 125.797505 94.036969 13.484003
5       1 2 0.0 130.858626 91.235204 14.917018
6       1 3 0.0 126.726740 94.917112 9.154864
7       1 2 0.0 123.396696 92.082059 6.714140
8       1 2 0.0 127.311289 93.625530 13.181682
9       1 2 0.0 130.039186 93.266382 13.399109
10      1 2 0.0 132.569682 91.683247 17.143090
11      1 2 0.0 125.791002 94.987131 14.784302
12      1 2 0.0 123.998460 97.047770 12.715633
13      1 1 0.0 133.470480 88.495550 14.396597
14      1 1 0.0 126.096794 93.631269 8.399694
15      1 1 0.0 133.497004 88.435352 11.269193
16      1 1 0.0 131.542896 90.788182 10.991151
17      1 2 0.0 131.976972 87.844211 14.512115
18      1 2 0.0 131.698979 91.716279 12.300977
19      1 2 0.0 129.511893 91.591164 7.180577
20      1 2 0.0 132.782257 89.809706 10.861556
21      1 2 0.0 130.587137 89.125845 16.303822
22      1 2 0.0 133.861582 88.570033 12.842290
23      1 2 0.0 130.154719 89.988388 11.343131
24      1 2 0.0 127.210421 92.687102 7.729398
25      1 1 0.0 136.725160 83.759154 11.930798
26      1 1 0.0 130.148725 90.853991 8.453516
27      1 1 0.0 137.739960 85.429780 9.835586
28      1 1 0.0 135.107958 86.872751 9.112734
29      1 2 0.0 135.924210 82.907325 10.764053
30      1 2 0.0 134.616243 87.916908 10.233512
31      1 2 0.0 131.530144 86.726974 7.778139
32      1 2 0.0 136.006715 87.401398 7.890943
33      1 2 0.0 136.157698 85.820303 9.737574
34      1 2 0.0 137.672502 84.955337 11.363472
35      1 2 0.0 133.876630 86.063009 8.519680
36      1 2 0.0 130.802517 89.436529 8.057283
37      1 1 0.0 138.090256 79.801890 10.007170
38      1 1 0.0 132.406330 85.465746 8.315698
39      1 1 0.0 139.541300 79.097368 7.216791
40      1 1 0.0 137.324884 86.648793 7.359525
41      1 2 0.0 136.675555 80.556408 10.002008
42      1 2 0.0 137.132967 85.022040 7.190656
43      1 2 0.0 137.476250 87.118262 5.833639
44      1 2 0.0 138.310992 84.129908 9.059443
45      1 2 0.0 138.233460 86.574438 8.735006
46      1 2 0.0 138.729129 79.522198 8.555364
47      1 2 0.0 137.479310 82.147833 7.579278
48      1 2 0.0 132.311966 84.230026 7.302521
49      1 1 0.0 138.296710 76.700665 10.442779
50      1 1 0.0 135.694292 81.359645 4.925309
51      1 1 0.0 140.245590 76.360647 7.988711
52      1 1 0.0 137.941696 83.685182 7.572566
53      1 2 0.0 138.016550 78.276913 10.547707
54      1 2 0.0 138.904468 83.204999 6.357733
55      1 2 0.0 135.391689 82.961656 4.780167
56      1 2 0.0 138.754505 78.296171 6.072488
57      1 2 0.0 140.586322 77.921846 7.716116
58      1 2 0.0 139.015920 76.418550 9.043958
59      1 2 0.0 139.593073 80.587272 6.560694
60      1 2 0.0 136.744543 87.680452 3.126810
61      1 1 0.0 139.936100 72.780005 11.843925
62      1 1 0.0 138.428183 81.634491 6.290507
63      1 1 0.0 140.676734 73.576228 8.749818
64      1 1 0.0 138.021268 77.809102 4.678911
65      1 2 0.0 138.373859 72.909329 11.552744
66      1 2 0.0 138.242004 78.704549 3.475768
67      1 2 0.0 136.518196 77.604658 5.303751
68      1 2 0.0 138.486076 76.216019 4.495331
69      1 2 0.0 141.077272 75.094701 8.644277
70      1 2 0.0 140.566812 72.827067 10.292618
71      1 2 0.0 137.138450 75.372097 6.357569
72      1 2 0.0 132.094162 82.461578 5.057149
73      1 1 0.0 137.560540 67.473002 9.471018
74      1 1 0.0 135.896156 76.427733 6.196147
75      1 1 0.0 138.817882 70.214058 8.755816
76      1 1 0.0 138.603904 75.126330 5.654017
77      1 2 0.0 136.153235 67.902551 10.172346
78      1 2 0.0 138.782432 73.509908 5.631167
79      1 2 0.0 133.830595 75.078758 2.944005
80      1 2 0.0 140.349519 70.382664 9.311003
81      1 2 0.0 142.232089 70.937202 11.070863
82      1 2 0.0 138.251951 68.726577 8.758101
83      1 2 0.0 139.766755 75.663139 6.628552
84      1 2 0.0 134.697345 75.807513 5.357695
85      1 1 0.0 138.252461 63.253902 11.132661
86      1 1 0.0 135.206913 72.504777 6.284550
87      1 1 0.0 136.985555 64.626216 8.940681
88      1 1 0.0 138.377940 72.486921 6.831208
89      1 2 0.0 136.306386 64.886649 10.395343
90      1 2 0.0 138.770317 70.988982 7.338348
91      1 2 0.0 131.956569 69.870087 6.165910
92      1 2 0.0 137.435953 66.125558 8.571482
93      1 2 0.0 139.265986 73.232384 8.053264
94      1 2 0.0 138.045369 63.563310 9.528512
95      1 2 0.0 136.786879 72.342293 6.607742
96      1 2 0.0 134.848583 73.372931 4.969358
97      1 1 0.0 132.597737 61.638882 16.662943
98      1 1 0.0 133.318094 67.404896 6.736909
99      1 1 0.0 135.381232 62.288053 12.230977
100     1 1 0.0 134.122997 64.738449 8.116613
101     1 2 0.0 131.922266 61.566440 15.178453
102     1 2 0.0 133.920624 68.508359 5.686538
103     1 2 0.0 133.060888 63.548260 8.335978
104     1 2 0.0 134.042022 65.359434 9.633930
105     1 2 0.0 135.680010 64.232249 8.077155
106     1 2 0.0 133.996881 58.488427 13.173236
107     1 2 0.0 133.866811 65.915502 7.046534
108     1 2 0.0 133.281879 68.118091 8.196447
109     1 1 0.0 125.772894 56.722912 17.416114
110     1 1 0.0 132.407095 60.185964 10.969504
111     1 1 0.0 127.810145 57.136774 12.346760
112     1 1 0.0 134.801911 59.097423 11.887749
113     1 2 0.0 124.432154 55.831418 17.443290
114     1 2 0.0 136.161906 58.213071 12.043786
115     1 2 0.0 126.305543 57.733654 12.249869
116     1 2 0.0 128.898779 58.326070 12.266701
117     1 2 0.0 135.190845 60.701602 11.915211
118     1 2 0.0 127.961256 56.570121 13.834412
119     1 2 0.0 133.638296 59.171395 10.766685
120     1 2 0.0 128.328895 63.110548 7.193165
121     1 1 0.0 127.038270 92.998806 18.134804
122     1 1 0.0 120.758828 98.387816 12.979924
123     1 1 0.0 131.344093 92.424628 13.672520
124     1 1 0.0 123.762804 97.440971 16.387859
125     1 2 0.0 126.734518 94.257611 17.164758
126     1 2 0.0 124.243043 98.521094 15.240088
127     1 2 0.0 122.577383 94.975014 13.028196
128     1 2 0.0 125.008797 92.688122 13.898006
129     1 2 0.0 124.962253 96.447574 16.784051
130     1 2 0.0 126.637986 91.595373 17.421051
131     1 2 0.0 122.682077 97.631258 17.560644
132     1 2 0.0 122.266746 98.772600 13.323907
133     1 1 0.0 133.546482 88.478587 18.888342
134     1 1 0.0 123.712562 95.590898 12.046214
135     1 1 0.0 130.508713 87.982080 15.103046
136     1 1 0.0 128.555624 92.683148 13.055719
137     1 2 0.0 133.355968 94.040923 17.923988
138     1 2 0.0 125.225070 92.678812 9.396550
139     1 2 0.0 123.191517 90.975280 8.917341
140     1 2 0.0 132.611381 92.560584 14.603966
141     1 2 0.0 128.547463 91.917917 11.646860
142     1 2 0.0 132.107042 88.834420 18.270276
143     1 2 0.0 128.562383 91.459289 14.128736
144     1 2 0.0 122.980472 95.488994 10.606405
145     1 1 0.0 132.600032 83.721147 16.026311
146     1 1 0.0 124.653783 91.178832 9.552403
147     1 1 0.0 133.920496 84.073791 13.171175
148     1 1 0.0 128.631498 90.437323 10.987683
149     1 2 0.0 129.934492 86.696365 15.822063
150     1 2 0.0 131.143887 91.473573 9.578048
151     1 2 0.0 127.474386 86.056504 8.245494
152     1 2 0.0 132.385034 87.269140 11.180117
153     1 2 0.0 133.211105 89.985837 15.063364
154     1 2 0.0 133.329571 84.172124 14.668417
155     1 2 0.0 127.000142 88.324393 8.995298
156     1 2 0.0 125.482915 90.311825 8.491933
157     1 1 0.0 133.417432 80.993610 12.466480
158     1 1 0.0 127.923255 87.074772 9.384268
159     1 1 0.0 135.382635 81.501468 10.108344
160     1 1 0.0 131.918951 85.740209 11.300409
161     1 2 0.0 131.834023 80.821815 12.270374
162     1 2 0.0 131.941011 85.121520 9.814592
163     1 2 0.0 129.003345 83.937963 10.358864
164     1 2 0.0 133.020081 85.029054 12.233833
165     1 2 0.0 135.516785 84.253493 12.909373
166     1 2 0.0 134.347177 80.815439 11.171793
167     1 2 0.0 130.409120 85.626445 11.803590
168     1 2 0.0 129.415998 87.508657 8.946843
169     1 1 0.0 133.457856 75.145461 12.957012
170     1 1 0.0 128.906558 85.139120 11.459098
171     1 1 0.0 135.343869 75.956733 10.776254
172     1 1 0.0 134.123762 80.561382 7.602761
173     1 2 0.0 132.280596 76.150336 12.523750
174     1 2 0.0 134.727440 80.881886 6.151690
175     1 2 0.0 129.442905 79.714016 6.744845
176     1 2 0.0 134.854066 79.243017 8.184961
177     1 2 0.0 134.532972 81.650050 8.731334
178     1 2 0.0 134.805737 75.664542 12.252073
179     1 2 0.0 132.562286 80.021129 7.666029
180     1 2 0.0 128.269853 84.298514 6.616413
181     1 1 0.0 135.290183 70.559560 13.011446
182     1 1 0.0 131.725631 78.638612 7.999667
183     1 1 0.0 137.150310 72.068213 10.860352
184     1 1 0.0 134.535395 77.756811 8.670596
185     1 2 0.0 133.115593 73.652623 12.527116
186     1 2 0.0 137.257809 81.229556 5.298814
187     1 2 0.0 131.078852 77.922356 6.705122
188     1 2 0.0 134.631800 74.859902 9.829302
189     1 2 0.0 134.924585 77.375726 10.168715
190     1 2 0.0 136.308426 71.374276 12.050723
191     1 2 0.0 132.930180 77.705923 8.542653
192     1 2 0.0 123.313681 77.851955 8.499176
193     1 1 0.0 132.381974 66.459071 14.075975
194     1 1 0.0 132.055396 71.717099 9.980483
195     1 1 0.0 135.038077 67.907143 11.371796
196     1 1 0.0 134.694412 73.370763 9.250531
197     1 2 0.0 131.360033 67.710861 13.923570
198     1 2 0.0 135.373071 76.850395 7.645422
199     1 2 0.0 128.731474 71.982889 7.592968
200     1 2 0.0 135.367970 69.039429 12.453607
201     1 2 0.0 136.078254 72.807043 9.918848
202     1 2 0.0 134.942693 66.366350 11.846782
203     1 2 0.0 133.458238 72.490110 9.764546
204     1 2 0.0 130.914480 72.403001 9.109816
205     1 1 0.0 131.349449 64.219495 12.198068
206     1 1 0.0 128.916377 70.135750 11.497148
207     1 1 0.0 134.824609 65.023115 11.004841
208     1 1 0.0 132.605515 68.614981 9.573988
209     1 2 0.0 129.796771 64.419731 12.551476
210     1 2 0.0 134.706399 73.229068 7.647871
211     1 2 0.0 128.584189 67.461523 9.308983
212     1 2 0.0 132.172459 65.439401 12.854307
213     1 2 0.0 133.603228 68.277769 10.766114
214     1 2 0.0 134.558094 63.524411 11.545644
215     1 2 0.0 132.344483 70.197223 9.550016
216     1 2 0.0 129.285801 69.876847 9.974301
217     1 1 0.0 128.395842 59.547634 16.936007
218     1 1 0.0 128.084695 65.982204 9.609509
219     1 1 0.0 131.520452 61.389034 13.631185
220     1 1 0.0 131.987301 62.898452 9.360009
221     1 2 0.0 128.163757 58.505262 15.720868
222     1 2 0.0 131.119148 68.004710 9.694586
223     1 2 0.0 130.903385 59.612551 11.013553
224     1 2 0.0 132.442418 61.482392 10.014596
225     1 2 0.0 131.671945 63.844277 10.667428
226     1 2 0.0 130.162115 60.594469 13.218651
227     1 2 0.0 130.565204 62.759052 8.630424
228     1 2 0.0 125.332697 68.506828 10.743345
229     1 1 0.0 123.111945 54.977930 21.379011
230     1 1 0.0 124.615527 61.422832 11.311671
231     1 1 0.0 123.861760 54.631663 18.358169
232     1 1 0.0 129.577565 59.725932 11.947508
233     1 2 0.0 120.516158 54.683189 19.319401
234     1 2 0.0 128.448508 60.607861 11.231735
235     1 2 0.0 123.635157 57.651009 11.578533
236     1 2 0.0 124.272117 58.619026 13.862874
237     1 2 0.0 131.555392 62.869628 13.038193
238     1 2 0.0 122.455730 54.148803 17.735777
239     1 2 0.0 124.850546 59.888799 11.763153
240     1 2 0.0 123.592183 61.438902 10.063439
241     1 1 0.0 124.584285 92.586857 19.835885
242     1 1 0.0 118.180894 98.841981 14.031539
243     1 1 0.0 125.532647 94.987003 16.360398
244     1 1 0.0 121.722365 96.615797 18.393975
245     1 2 0.0 124.256177 94.033781 16.651090
246     1 2 0.0 119.719289 99.258011 13.869096
247     1 2 0.0 120.776553 96.786953 13.262067
248     1 2 0.0 122.931505 96.842688 15.103087
249     1 2 0.0 122.279243 95.204584 17.837094
250     1 2 0.0 124.228761 91.068001 19.475601
251     1 2 0.0 121.943867 96.588376 19.999817
252     1 2 0.0 117.757147 98.747730 12.454668
253     1 1 0.0 126.982289 90.027160 17.253304
254     1 1 0.0 121.064875 95.228433 13.541456
255     1 1 0.0 129.320614 90.352638 15.035454
256     1 1 0.0 124.414557 91.220792 14.077526
257     1 2 0.0 125.695235 89.199817 16.746307
258     1 2 0.0 125.032133 94.726187 12.260417
259     1 2 0.0 120.708330 91.679165 12.547192
260     1 2 0.0 124.089892 90.711658 15.570197
261     1 2 0.0 125.991462 93.106448 19.345904
262     1 2 0.0 128.244859 90.074986 16.225008
263     1 2 0.0 123.058132 90.984591 13.240543
264     1 2 0.0 120.212152 94.284521 12.534828
265     1 1 0.0 129.434616 84.427200 19.546071
266     1 1 0.0 121.601477 90.379293 12.895969
267     1 1 0.0 130.019420 85.225591 16.490993
268     1 1 0.0 125.795593 89.565215 11.998554
269     1 2 0.0 127.906678 84.631262 20.097585
270     1 2 0.0 124.999616 90.541650 10.969015
271     1 2 0.0 122.786005 87.332527 13.168400
272     1 2 0.0 127.353243 89.661889 11.557743
273     1 2 0.0 129.571954 88.959152 14.245661
274     1 2 0.0 129.511383 84.944241 18.005107
275     1 2 0.0 125.059423 88.144054 12.016937
276     1 2 0.0 121.473702 89.496217 11.557069
277     1 1 0.0 130.669005 81.276235 16.646438
278     1 1 0.0 124.003434 86.930526 12.167710
279     1 1 0.0 130.294735 81.234913 12.448873
280     1 1 0.0 128.782736 82.370132 9.949798
281     1 2 0.0 129.101280 81.567916 17.070846
282     1 2 0.0 129.076414 81.829752 8.468409
283     1 2 0.0 125.298649 83.682503 9.220478
284     1 2 0.0 128.038405 86.322039 10.794269
285     1 2 0.0 129.377487 84.276450 15.350730
286     1 2 0.0 129.606512 80.071762 13.315929
287     1 2 0.0 127.199454 82.222443 10.221863
288     1 2 0.0 123.459308 86.589360 10.688565
289     1 1 0.0 129.995064 79.050306 14.506239
290     1 1 0.0 125.727242 82.769455 10.488929
291     1 1 0.0 130.884513 76.913909 12.653977
292     1 1 0.0 128.925176 83.502291 14.015442
293     1 2 0.0 128.690285 78.251660 14.996200
294     1 2 0.0 128.428105 84.506529 12.856511
295     1 2 0.0 129.620157 81.551591 11.043687
296     1 2 0.0 130.078462 82.599319 13.324090
297     1 2 0.0 131.616219 82.427525 15.990525
298     1 2 0.0 130.983213 77.968652 13.874095
299     1 2 0.0 127.729298 82.531469 14.423691
300     1 2 0.0 125.478197 79.290461 9.317879
301     1 1 0.0 130.821390 72.372519 15.590436
302     1 1 0.0 126.379887 78.937817 10.630622
303     1 1 0.0 132.547749 72.188737 12.868303
304     1 1 0.0 129.376085 78.056526 10.062194
305     1 2 0.0 130.048367 73.743558 15.941458
306     1 2 0.0 130.507310 78.677766 9.080396
307     1 2 0.0 127.144749 76.209642 12.661914
308     1 2 0.0 128.755447 76.672096 9.477261
309     1 2 0.0 130.220264 77.674931 11.395810
310     1 2 0.0 131.812217 72.326606 14.312560
311     1 2 0.0 127.992498 78.897132 10.345154
312     1 2 0.0 125.888299 77.420237 10.838889
313     1 1 0.0 128.748051 70.142382 15.670638
314     1 1 0.0 127.272013 72.552094 12.315973
315     1 1 0.0 129.896492 68.261572 13.515647
316     1 1 0.0 128.282350 75.340850 13.381217
317     1 2 0.0 127.421721 70.802266 16.268384
318     1 2 0.0 131.707268 71.771686 11.562252
319     1 2 0.0 126.320208 72.325330 8.520884
320     1 2 0.0 130.019293 69.350368 12.352860
321     1 2 0.0 127.929248 73.926193 12.734056
322     1 2 0.0 128.923645 69.006652 14.572077
323     1 2 0.0 128.490589 71.578337 11.969603
324     1 2 0.0 126.225333 72.420601 11.081676
325     1 1 0.0 128.435118 64.283009 16.435948
326     1 1 0.0 126.073075 68.752850 12.130904
327     1 1 0.0 128.596175 63.868765 13.487166
328     1 1 0.0 127.580993 66.337909 12.709900
329     1 2 0.0 127.136077 63.355422 16.639195
330     1 2 0.0 127.537126 69.326008 11.771722
331     1 2 0.0 124.171504 65.468735 8.964226
332     1 2 0.0 127.464950 65.000158 13.554330
333     1 2 0.0 128.983962 67.041411 13.066491
334     1 2 0.0 129.055883 63.745180 15.033821
335     1 2 0.0 126.388558 67.383852 12.890195
336     1 2 0.0 124.651998 70.756480 9.703012
337     1 1 0.0 120.542045 56.264028 22.246169
338     1 1 0.0 122.676466 65.083441 9.475139
339     1 1 0.0 128.001680 56.927866 15.378640
340     1 1 0.0 127.672424 62.013335 11.149840
341     1 2 0.0 123.134133 58.651293 19.204006
342     1 2 0.0 127.724070 65.926343 11.164815
343     1 2 0.0 123.761529 62.310372 12.324644
344     1 2 0.0 126.085954 61.941403 11.014736
345     1 2 0.0 128.019405 62.684697 12.585385
346     1 2 0.0 125.416987 58.080941 18.208905
347     1 2 0.0 128.285283 62.753951 9.866231
348     1 2 0.0 121.873858 66.452949 9.763015
349     1 1 0.0 119.542802 53.997670 20.480209
350     1 1 0.0 122.822221 59.284267 14.167826
351     1 1 0.0 121.054801 54.954463 17.842052
352     1 1 0.0 124.867506 58.384610 12.367611
353     1 2 0.0 118.102725 54.183748 19.968888
354     1 2 0.0 122.200181 59.288220 12.658670
355     1 2 0.0 115.444581 56.802113 10.478972
356     1 2 0.0 125.235144 53.853296 18.758114
357     1 2 0.0 126.552166 56.700210 16.040286
358     1 2 0.0 119.697228 54.972574 16.931988
359     1 2 0.0 121.974599 58.297119 15.157704
360     1 2 0.0 119.587944 57.457916 15.791542
361     1 1 0.0 121.496018 95.758101 21.284508
362     1 1 0.0 115.703956 98.644551 15.597006
363     1 1 0.0 122.918115 93.777938 17.486950
364     1 1 0.0 116.674124 99.709497 20.893090
365     1 2 0.0 121.063855 96.513256 22.653399
366     1 2 0.0 116.988587 99.392054 14.939338
367     1 2 0.0 118.342971 97.353607 14.634957
368     1 2 0.0 120.126841 96.411098 18.147841
369     1 2 0.0 117.135489 98.273414 21.642425
370     1 2 0.0 119.614596 92.603437 20.023647
371     1 2 0.0 117.888619 100.561327 20.549394
372     1 2 0.0 114.410653 98.751301 14.690227
373     1 1 0.0 122.922834 90.159544 19.167445
374     1 1 0.0 117.444724 96.235860 15.356279
375     1 1 0.0 124.111060 89.328759 16.424951
376     1 1 0.0 120.410062 93.379636 15.962064
377     1 2 0.0 121.485179 90.925030 18.981621
378     1 2 0.0 120.762143 94.609617 14.974267
379     1 2 0.0 117.462832 92.563262 13.532357
380     1 2 0.0 121.803850 92.961692 16.669125
381     1 2 0.0 123.430489 93.262555 18.921537
382     1 2 0.0 123.301566 89.415995 17.816223
383     1 2 0.0 119.615998 92.278213 15.098150
384     1 2 0.0 117.447020 94.977055 14.387273
385     1 1 0.0 124.142685 84.702301 21.803644
386     1 1 0.0 118.316702 91.527905 14.435627
387     1 1 0.0 126.957805 85.753090 20.848797
388     1 1 0.0 122.100715 87.883876 14.521765
389     1 2 0.0 124.668958 84.671819 23.340548
390     1 2 0.0 121.402674 89.297257 14.091053
391     1 2 0.0 118.595587 87.552276 14.596254
392     1 2 0.0 125.524869 90.218595 13.450380
393     1 2 0.0 123.331406 88.264195 15.504645
394     1 2 0.0 124.276708 83.212141 21.221914
395     1 2 0.0 120.984027 86.915476 15.175168
396     1 2 0.0 118.525324 90.075879 13.734094
397     1 1 0.0 126.195621 79.675245 19.848412
398     1 1 0.0 119.451243 86.488860 15.474531
399     1 1 0.0 127.571429 81.085948 17.357539
400     1 1 0.0 124.744577 84.097131 13.164524
401     1 2 0.0 125.095766 80.751542 20.337353
402     1 2 0.0 124.668320 85.663813 12.891644
403     1 2 0.0 118.055415 83.181787 13.482881
404     1 2 0.0 125.408188 83.598455 14.540964
405     1 2 0.0 127.452071 87.120558 20.098605
406     1 2 0.0 127.175736 80.543016 18.847660
407     1 2 0.0 123.238444 83.500251 13.038295
408     1 2 0.0 119.061799 84.955082 15.156194
409     1 1 0.0 126.432425 76.991708 18.406032
410     1 1 0.0 121.952793 82.970329 12.238832
411     1 1 0.0 127.247912 78.358282 15.691938
412     1 1 0.0 126.257213 82.329703 15.044349
413     1 2 0.0 125.667818 75.573607 18.263645
414     1 2 0.0 125.570776 83.498720 11.904561
415     1 2 0.0 121.129655 79.186517 12.381219
416     1 2 0.0 127.394942 79.773067 16.454167
417     1 2 0.0 126.536863 82.103832 16.628606
418     1 2 0.0 126.940080 77.361824 16.916482
419     1 2 0.0 125.618085 81.051130 14.308643
420     1 2 0.0 120.654007 82.554170 13.074652
421     1 1 0.0 126.418908 74.172470 18.170529
422     1 1 0.0 122.654660 78.672155 12.568961
423     1 1 0.0 128.995439 74.916657 16.323001
424     1 1 0.0 125.376308 79.623592 13.604275
425     1 2 0.0 126.862293 73.666397 19.660813
426     1 2 0.0 126.032779 79.569005 12.108135
427     1 2 0.0 122.409440 74.302559 12.619804
428     1 2 0.0 129.761066 75.823200 13.031052
429     1 2 0.0 126.106102 78.556222 14.580524
430     1 2 0.0 127.830421 74.496418 17.376799
431     1 2 0.0 123.780785 79.356398 13.509282
432     1 2 0.0 122.764199 77.086851 12.832252
433     1 1 0.0 127.739372 66.886580 17.609609
434     1 1 0.0 121.399486 70.276935 14.435831
435     1 1 0.0 126.836534 71.440596 17.616464
436     1 1 0.0 124.917238 71.312037 13.627594
437     1 2 0.0 126.692310 68.048073 17.200911
438     1 2 0.0 126.296234 72.128283 13.532601
439     1 2 0.0 118.593165 67.229786 13.617087
440     1 2 0.0 124.416342 71.037702 15.143627
441     1 2 0.0 128.226369 75.282055 14.973451
442     1 2 0.0 125.966596 72.795054 17.492704
443     1 2 0.0 123.712689 72.041940 12.803016
444     1 2 0.0 121.450621 71.694908 13.680436
445     1 1 0.0 125.628797 61.667706 20.213103
446     1 1 0.0 123.441965 69.925184 15.767936
447     1 1 0.0 126.323141 62.053510 17.123831
448     1 1 0.0 125.428464 68.799402 17.918867
449     1 2 0.0 124.603923 62.793615 20.829558
450     1 2 0.0 125.331804 69.899421 12.959297
451     1 2 0.0 122.800925 69.397812 14.344000
452     1 2 0.0 125.191278 67.822967 19.198763
453     1 2 0.0 126.011738 70.253085 18.311427
454     1 2 0.0 125.997073 62.145082 18.702029
455     1 2 0.0 124.202237 69.085343 16.888042
456     1 2 0.0 121.909436 70.465819 15.988444
457     1 1 0.0 121.332793 63.478752 22.395514
458     1 1 0.0 120.686779 63.411157 16.534797
459     1 1 0.0 122.237671 59.684355 18.392567
460     1 1 0.0 123.330513 61.591820 16.212094
461     1 2 0.0 119.731914 60.226011 21.119494
462     1 2 0.0 122.679781 64.174729 10.796350
463     1 2 0.0 122.941069 60.709509 14.894576
464     1 2 0.0 123.170731 60.472798 17.368964
465     1 2 0.0 124.894922 61.977497 16.333100
466     1 2 0.0 120.970893 62.456148 21.175499
467     1 2 0.0 122.175824 62.720663 16.520087
468     1 2 0.0 120.606952 64.551095 15.385230
469     1 1 0.0 117.613050 54.344192 24.309656
470     1 1 0.0 118.678475 58.482943 14.797053
471     1 1 0.0 118.716476 56.172456 16.621792
472     1 1 0.0 121.135010 57.769875 16.414627
473     1 2 0.0 119.449840 57.323235 21.757127
474     1 2 0.0 119.235353 58.132084 13.358611
475     1 2 0.0 114.417922 55.658986 18.249975
476     1 2 0.0 121.136031 58.948203 17.472710
477     1 2 0.0 121.559268 60.739481 19.330561
478     1 2 0.0 119.848466 54.872201 21.831391
479     1 2 0.0 121.446923 56.454188 17.263260
480     1 2 0.0 117.147731 58.004291 14.851099
481     1 1 0.0 119.981087 96.411990 23.780217
482     1 1 0.0 114.769110 98.651566 18.581431
483     1 1 0.0 118.946139 93.989142 20.511160
484     1 1 0.0 114.979262 99.292957 23.197528
485     1 2 0.0 118.589084 97.094576 23.544570
486     1 2 0.0 115.376358 98.904602 17.118791
487     1 2 0.0 112.509465 96.471806 20.100176
488     1 2 0.0 116.253437 98.605397 23.964041
489     1 2 0.0 115.645807 100.191593 22.083563
490     1 2 0.0 119.597891 94.680145 24.008926
491     1 2 0.0 114.394968 97.883402 22.521804
492     1 2 0.0 113.160580 98.967606 18.482296
493     1 1 0.0 119.360067 89.131712 21.534681
494     1 1 0.0 113.950563 95.880920 19.669851
495     1 1 0.0 119.908018 91.212885 19.244076
496     1 1 0.0 118.916682 95.342708 17.899607
497     1 2 0.0 118.969347 92.025177 23.784297
498     1 2 0.0 119.545353 94.051891 17.141356
499     1 2 0.0 114.156889 92.577419 17.239838
500     1 2 0.0 118.288010 94.745700 19.263724
501     1 2 0.0 120.117788 95.015954 20.902312
502     1 2 0.0 119.455069 89.982904 20.188518
503     1 2 0.0 117.893720 95.922880 16.840239
504     1 2 0.0 113.717712 94.764576 18.542952
505     1 1 0.0 121.091016 85.140140 22.890881
506     1 1 0.0 114.605503 91.095549 17.627991
507     1 1 0.0 124.301064 84.638404 24.903158
508     1 1 0.0 117.552223 90.721862 17.261220
509     1 2 0.0 119.804855 85.302497 21.947684
510     1 2 0.0 117.449697 91.309049 15.779157
511     1 2 0.0 113.706746 87.639129 15.991790
512     1 2 0.0 117.675024 89.144976 17.089351
513     1 2 0.0 118.898319 91.199621 18.001435
514     1 2 0.0 123.420415 83.307923 25.153494
515     1 2 0.0 116.166341 91.052314 18.013186
516     1 2 0.0 114.338222 90.124471 16.364907
517     1 1 0.0 124.869546 80.495700 24.309248
518     1 1 0.0 114.858119 86.563597 15.614062
519     1 1 0.0 125.104054 81.889312 21.467945
520     1 1 0.0 117.444214 87.586838 17.263137
521     1 2 0.0 123.506618 80.705118 25.136356
522     1 2 0.0 118.810458 86.793294 16.928948
523     1 2 0.0 116.976728 83.744615 16.095372
524     1 2 0.0 116.942042 87.343240 18.759889
525     1 2 0.0 122.534919 84.995512 22.101721
526     1 2 0.0 124.703898 81.278913 22.909447
527     1 2 0.0 116.234309 87.122598 16.282155
528     1 2 0.0 116.117756 85.056348 18.346050
529     1 1 0.0 119.048409 60.399846 22.571382
530     1 1 0.0 118.814283 63.480410 19.013979
531     1 1 0.0 120.390679 61.323862 20.188232
532     1 1 0.0 118.457611 63.582313 22.179454
533     1 2 0.0 117.426616 60.551617 26.607972
534     1 2 0.0 122.107347 64.109557 13.320316
535     1 2 0.0 115.815918 62.163958 17.525368
536     1 2 0.0 118.518183 61.949183 22.483040
537     1 2 0.0 120.025591 63.886875 17.963915
538     1 2 0.0 119.887742 64.153430 22.681962
539     1 2 0.0 118.548023 63.893890 20.581160
540     1 2 0.0 117.405066 63.751429 18.341500
541     1 1 0.0 115.969324 55.371259 22.138241
542     1 1 0.0 115.677559 60.893165 18.488335
543     1 1 0.0 114.195400 55.916103 19.819624
544     1 1 0.0 117.225008 58.189987 18.535383
545     1 2 0.0 114.722821 55.696737 23.144278
546     1 2 0.0 115.970089 57.500769 17.783967
547     1 2 0.0 112.582661 55.931280 20.000552
548     1 2 0.0 117.540619 58.145986 20.095402
549     1 2 0.0 118.322313 57.203732 17.791373
550     1 2 0.0 115.150649 55.116692 20.780592
551     1 2 0.0 116.819751 59.764066 18.292779
552     1 2 0.0 114.224985 60.187494 18.194318
553     1 1 0.0 114.626416 94.837145 27.188417
554     1 1 0.0 110.028956 98.485001 22.619735
555     1 1 0.0 117.124268 97.551929 23.076950
556     1 1 0.0 112.287964 99.358767 24.287213
557     1 2 0.0 114.039954 95.979635 26.233794
558     1 2 0.0 115.654861 99.361828 19.685071
559     1 2 0.0 107.664235 96.700610 21.223730
560     1 2 0.0 112.569909 97.830601 24.798698
561     1 2 0.0 113.756351 99.902591 24.015047
562     1 2 0.0 113.647066 93.527325 27.021526
563     1 2 0.0 111.380790 99.320250 22.935766
564     1 2 0.0 108.804897 98.954597 21.674763
565     1 1 0.0 118.287245 90.557847 23.948535
566     1 1 0.0 110.967500 96.811058 20.323908
567     1 1 0.0 118.460289 93.530131 23.490912
568     1 1 0.0 114.594919 96.244660 22.592804
569     1 2 0.0 116.723474 90.732320 24.293130
570     1 2 0.0 114.761714 97.076338 18.973807
571     1 2 0.0 110.703917 93.024569 20.359040
572     1 2 0.0 114.526058 95.561946 21.147139
573     1 2 0.0 116.153334 96.250272 23.059200
574     1 2 0.0 118.342589 89.820930 22.550775
575     1 2 0.0 113.546964 95.755040 23.732883
576     1 2 0.0 110.184147 95.533123 19.772760
577     1 1 0.0 116.838752 86.201005 24.580802
578     1 1 0.0 111.096422 91.837568 21.376910
579     1 1 0.0 118.424966 86.124610 21.768144
580     1 1 0.0 112.232110 89.773741 19.220450
581     1 2 0.0 115.255470 86.470239 24.377391
582     1 2 0.0 113.569152 90.551598 18.735019
583     1 2 0.0 109.308471 89.298022 16.037124
584     1 2 0.0 112.673710 88.239453 19.472949
585     1 2 0.0 118.223868 93.744396 21.942379
586     1 2 0.0 117.693260 86.168483 23.223642
587     1 2 0.0 111.673830 90.590114 20.510548
588     1 2 0.0 107.798385 90.534890 20.671603
589     1 1 0.0 119.960811 83.080394 25.164103
590     1 1 0.0 113.271904 87.092499 20.446240
591     1 1 0.0 122.705158 81.962647 25.749444
592     1 1 0.0 116.239920 86.124100 19.567656
593     1 2 0.0 118.393724 82.722649 24.883980
594     1 2 0.0 114.345618 80.957771 19.493372
595     1 2 0.0 112.659301 83.070574 19.164120
596     1 2 0.0 117.295781 85.705774 20.710633
597     1 2 0.0 118.958635 87.607755 21.406248
598     1 2 0.0 121.136668 81.985604 25.378327
599     1 2 0.0 114.842817 86.740876 20.154813
600     1 2 0.0 112.674220 85.588311 20.349043
601     1 1 0.0 117.420495 59.097423 27.296345
602     1 1 0.0 112.914595 63.840579 24.435538
603     1 1 0.0 116.162388 61.417985 26.133415
604     1 1 0.0 115.910792 63.174955 23.714521
605     1 2 0.0 115.267839 60.297942 25.334870
606     1 2 0.0 117.077213 63.982529 22.921485
607     1 2 0.0 113.452472 62.843738 21.210937
608     1 2 0.0 116.496234 62.535477 25.063316
609     1 2 0.0 114.519810 63.841089 24.263343
610     1 2 0.0 115.320122 61.893066 27.459767
611     1 2 0.0 115.390768 62.098913 22.611574
612     1 2 0.0 112.440732 64.469853 23.025332
613     1 1 0.0 112.104846 54.083758 28.182212
614     1 1 0.0 114.566609 61.608273 21.325965
615     1 1 0.0 113.637758 56.666030 23.794702
616     1 1 0.0 113.550662 58.537784 21.201389
617     1 2 0.0 111.596171 54.631663 26.749360
618     1 2 0.0 112.223566 58.421469 20.283001
619     1 2 0.0 110.448368 56.960643 21.212304
620     1 2 0.0 113.279938 57.728297 22.582807
621     1 2 0.0 114.464211 57.503702 20.312033
622     1 2 0.0 114.475688 53.826641 30.169598
623     1 2 0.0 113.974919 60.080362 21.425222
624     1 2 0.0 110.361527 57.941797 23.787153
625     1 1 0.0 114.411546 94.674534 30.226520
626     1 1 0.0 107.551380 100.679683 27.069880
627     1 1 0.0 112.901333 96.291339 25.133704
628     1 1 0.0 109.830536 99.014413 25.651922
629     1 2 0.0 112.839486 95.019908 30.361175
630     1 2 0.0 108.636953 99.913559 26.233386
631     1 2 0.0 107.104169 97.049045 27.731118
632     1 2 0.0 109.500515 98.386286 24.169696
633     1 2 0.0 111.194739 99.842520 25.369758
634     1 2 0.0 114.705478 95.208155 28.745315
635     1 2 0.0 110.146274 97.805986 26.661426
636     1 2 0.0 106.734618 99.638331 27.911270