25056
timestep 0 101.667777 101.670591 148.772896
Au 20.992759 33.814194 133.059204
Au 25.467514 30.179017 133.923478
Au 22.812683 32.821811 135.981665
Au 21.435292 33.127790 132.742730
Au 26.618423 29.589782 137.230492
Au 30.383233 25.223530 138.094766
Au 28.235189 28.292471 140.152953
Au 26.933189 28.836185 136.914018
Au 31.412417 24.440862 141.401780
Au 34.349653 19.479956 142.266054
Au 32.775510 22.879155 144.324241
Au 31.589580 23.643617 141.085306
Au 35.224956 18.528307 145.573068
Au 37.242846 13.127746 146.437342
Au 36.291787 16.751000 0.414805
Au 35.258982 17.712324 145.256594
Au 37.936920 12.036850 1.663632
Au 38.972418 6.365370 2.527906
Au 38.674157 10.099473 4.586093
Au 37.826745 11.227624 1.347158
Au 39.463577 5.169312 5.834920
Au 39.484329 -0.595886 6.699194
Au 39.848185 3.132397 8.757381
Au 39.212644 4.392126 5.518446
Au 39.757226 -1.859736 10.006208
Au 38.762585 -7.538524 10.870482
Au 39.777190 -3.932548 12.928669
Au 39.373375 -2.580600 9.689734
Au 38.808695 -8.830679 14.177496
Au 36.829735 -14.245627 15.041770
Au 38.463390 -10.874625 17.099957
Au 38.303919 -9.472698 13.861022
Au 36.647617 -15.525715 18.348784
Au 33.746172 -20.507638 19.213058
Au 35.947832 -17.476932 21.271245
Au 36.037688 -16.068828 18.032310
Au 33.341516 -21.735662 22.520072
Au 29.608237 -26.128904 23.384346
Au 32.309115 -23.533188 25.442533
Au 32.645489 -22.162902 22.203598
Au 28.993686 -27.266497 26.691360
Au 24.545217 -30.933794 27.555634
Au 27.660925 -28.854168 29.613821
Au 28.233309 -27.564514 26.374886
Au 23.739972 -31.945413 30.862648
Au 18.715302 -34.772184 31.726922
Au 22.148494 -33.273624 33.785109
Au 22.939003 -32.104896 30.546174
Au 17.744523 -35.626220 35.033936
Au 12.300644 -37.524145 35.898210
Au 15.944050 -36.653473 37.956397
Au 16.927987 -35.642187 34.717462
Au 11.194661 -38.193916 39.205224
Au 5.501661 -39.103696 40.069498
Au 9.241449 -38.888114 42.127685
Au 10.388069 -38.065867 38.888750
Au 4.295031 -39.568275 43.376512
Au -1.469216 -39.461484 44.240786
Au 2.250105 -39.907729 46.298973
Au 3.523585 -39.300210 43.060038
Au -2.738794 -39.706356 47.547800
Au -8.394188 -38.586331 48.412074
Au -4.811541 -39.680460 50.470261
Au -3.450990 -39.306652 47.231326
Au -9.687047 -38.603844 51.719088
Au -15.056892 -36.505579 52.583362
Au -11.722854 -38.213407 54.641549
Au -10.317742 -38.084989 51.402614
Au -16.332637 -36.295188 55.890376
Au -21.249155 -33.284241 56.754650
Au -18.267896 -35.552409 58.812837
Au -16.862125 -35.673393 55.573902
Au -22.467927 -32.852518 60.061664
Au -26.777506 -29.022965 60.925938
Au -24.242173 -31.780605 62.984125
Au -22.879665 -32.147210 59.745190
Au -27.901225 -28.383398 64.232952
Au -31.469215 -23.854890 65.097226
Au -29.459024 -27.015842 67.155413
Au -28.182348 -27.616615 63.916478
Au -32.462773 -23.027463 68.404240
Au -35.177696 -17.941489 69.268514
Au -33.755452 -21.406991 71.326701
Au -32.604498 -22.223162 68.087766
Au -36.010048 -16.952054 72.575528
Au -37.787078 -11.467521 73.439802
Au -36.997218 -15.129297 75.497989
Au -36.007946 -16.135364 72.259054
Au -38.432219 -10.346992 76.746816
Au -39.215835 -4.635260 77.611090
Au -39.083037 -8.378901 79.669277
Au -38.286357 -9.543431 76.430342
Au -39.653607 -3.418647 80.918104
Au -39.419325 2.341827 81.782378
Au -39.947740 -1.366712 83.840565
Au -39.368542 -2.653320 80.601630
Au -39.636051 3.616511 85.089392
Au -38.391191 9.245744 85.953666
Au -39.564308 5.688178 88.011853
Au -39.220689 4.319691 84.772918
Au -38.380099 10.538674 89.260680
Au -36.163556 15.860786 90.124954
Au -37.944722 12.565345 92.183141
Au -37.847419 11.157737 88.944206
Au -35.924993 17.131565 93.431968
Au -32.806020 21.980271 94.296242
Au -35.139584 19.049919 96.354429
Au -35.291637 17.647168 93.115494
Au -32.347441 23.189195 97.603256
Au -28.423488 27.413001 98.467530
Au -31.236540 24.939294 100.525717
Au -31.633197 23.585229 97.286782
Au -27.759219 28.522297 101.774544
Au -23.152888 31.989234 102.638818
Au -26.357535 30.049461 104.697005
Au -26.986405 28.786388 101.458070
Au -22.303684 32.964244 105.945832
Au -17.158894 35.565990 106.810106
Au -20.655011 34.220758 108.868293
Au -21.496444 33.088141 105.629358
Au -16.151288 36.376250 110.117120
Au -10.628785 38.031516 110.981394
Au -14.307139 37.322856 113.039581
Au -15.334845 36.356082 109.800646
Au -9.494259 38.651710 114.288408
Au -3.766589 39.308779 115.152682
Au -7.512252 39.258832 117.210869
Au -8.694121 38.488108 113.971934
Au -2.540590 39.719530 118.459696
Au 3.213291 39.357872 119.323970
Au -0.482651 39.968198 121.382157
Au -1.781757 39.417604 118.143222
Au 4.492458 39.546346 122.630984
Au 10.092775 38.177260 123.495258
Au 6.562031 39.428791 125.553445
Au 5.186277 39.115530 122.314510
Au 11.385143 38.137569 126.802272
Au 16.656918 35.803832 127.666546
Au 13.401687 37.657464 129.724733
Au 11.992270 37.591324 126.485798
Au 17.922109 35.537216 130.973560
Au 22.700630 32.311743 131.837834
Au 19.822618 34.709561 133.896021
Au 18.423574 34.892608 130.657086
Au 24.145893 30.809291 130.804266
Au 27.864314 26.949647 132.012023
Au 25.498816 29.407508 133.852417
Au 23.959141 29.964248 130.937820
Au 29.193230 26.076654 134.975554
Au 32.173999 21.622609 136.183311
Au 30.278207 24.458562 138.023705
Au 28.860610 25.277693 135.109108
Au 33.328449 20.529273 139.146842
Au 35.478435 15.619990 140.354599
Au 34.111581 18.745429 142.194993
Au 32.860353 19.801358 139.280396
Au 36.422348 14.340473 143.318130
Au 37.674376 9.129338 144.525887
Au 36.879167 12.446611 146.366281
Au 35.833401 13.706346 143.451684
Au 38.378260 7.703616 147.489418
Au 38.693213 2.353447 0.616451
Au 38.494494 5.758909 2.456845
Au 37.686865 7.183091 147.622972
Au 39.135076 0.826066 3.579982
Au 38.503112 -4.495975 4.787739
Au 38.907092 -1.108726 6.628133
Au 38.362833 0.435406 3.713536
Au 38.669149 -6.077293 7.751270
Au 37.110014 -11.204924 8.959027
Au 38.104071 -7.941719 10.799421
Au 37.840187 -6.325883 7.884824
Au 36.995036 -12.790773 11.922558
Au 34.557443 -17.563785 13.130315
Au 36.110519 -14.526580 14.970709
Au 36.135256 -12.889525 12.056112
Au 34.165044 -19.104616 16.093846
Au 30.925154 -23.373880 17.301603
Au 32.988724 -20.657570 19.141997
Au 33.301308 -19.050445 16.227400
Au 30.267593 -24.821550 20.265134
Au 26.326635 -28.453677 21.472891
Au 28.836224 -26.143131 23.313285
Au 29.426889 -24.616149 20.398688
Au 25.424457 -29.762956 24.436422
Au 20.905561 -32.644463 25.644179
Au 23.782760 -30.811872 27.484573
Au 24.633050 -29.412742 24.569976
Au 19.786954 -33.774443 28.607710
Au 14.831311 -35.815299 29.815467
Au 17.986223 -34.517922 31.655861
Au 19.069573 -33.290358 28.741264
Au 13.531225 -36.730675 32.778998
Au 8.293668 -37.867117 33.986755
Au 11.627721 -37.145487 35.827149
Au 12.910283 -36.127845 32.912552
Au 6.852724 -38.539288 36.950286
Au 1.496897 -38.735807 38.158043
Au 4.905921 -38.612473 39.998437
Au 6.347621 -37.836547 37.083840
Au -0.039886 -39.143773 41.121574
Au -5.346644 -38.394229 42.329331
Au -1.969160 -38.873044 44.169725
Au -0.413367 -38.363077 41.255128
Au -6.931248 -38.525243 45.292862
Au -12.023133 -36.853056 46.500619
Au -8.782717 -37.919059 48.341013
Au -7.161439 -37.690985 45.426416
Au -13.606050 -36.703024 49.464150
Au -18.323970 -34.160439 50.671907
Au -15.321865 -35.780324 52.512301
Au -13.685758 -35.841269 49.597704
Au -19.855742 -33.734049 53.635438
Au -24.052289 -30.400507 54.843195
Au -21.382294 -32.523662 56.683589
Au -19.782477 -32.871723 53.768992
Au -25.485058 -29.711082 57.806726
Au -29.029114 -25.690737 59.014483
Au -26.774651 -28.250826 60.854877
Au -25.261109 -28.875127 57.940280
Au -30.318114 -24.759816 61.978014
Au -33.098949 -20.178281 63.185771
Au -31.330456 -23.095316 65.026165
Au -29.950479 -23.976351 62.111568
Au -34.203906 -19.034951 66.149302
Au -36.134634 -14.035372 67.357059
Au -34.907367 -17.218213 69.197453
Au -33.704070 -18.328454 66.282856
Au -37.021025 -12.715354 70.320590
Au -38.041323 -7.453939 71.528347
Au -37.393626 -10.803140 73.368741
Au -36.404606 -12.107900 70.454144
Au -38.681453 -5.998477 74.491878
Au -38.759442 -0.639613 75.699635
Au -38.711553 -4.050532 77.540029
Au -37.967710 -5.509044 74.625432
Au -39.133311 0.905818 78.663166
Au -38.266554 6.194696 79.870923
Au -38.819969 2.828631 81.711317
Au -38.344544 1.261937 78.796720
Au -38.362481 7.781811 82.834454
Au -36.578060 12.835457 84.042211
Au -37.715487 9.619416 85.882605
Au -37.523335 7.993490 82.968008
Au -36.393048 14.414668 87.005742
Au -33.746714 19.075186 88.213499
Au -35.432616 16.109651 90.053893
Au -35.529741 14.475293 87.139296
Au -33.286543 20.597151 91.177030
Au -29.860981 24.718925 92.384787
Au -32.042682 22.096553 94.225181
Au -32.426049 20.504827 91.310584
Au -29.140028 26.136092 95.348318
Au -25.042266 29.590343 96.556075
Au -27.651601 27.393066 98.396469
Au -28.309232 25.893705 95.481872
Au -24.083057 30.858434 99.519606
Au -19.441125 33.537234 100.727363
Au -22.396569 31.833705 102.567757
Au -23.307916 30.473556 99.653160
Au -18.273631 34.616629 103.690894
Au -13.232564 36.436283 104.898651
Au -16.441775 35.279727 106.739045
Au -17.578364 34.101286 103.824448
Au -11.893260 37.293256 107.862182
Au -6.610561 38.196910 109.069939
Au -9.973271 37.623463 110.910333
Au -11.299591 36.663549 107.995736
Au -5.141295 38.804686 112.033470
Au 0.217983 38.764106 113.241227
Au -3.193160 38.791685 115.081621
Au -4.667771 38.080290 112.167024
Au 1.771307 39.103696 116.204758
Au 7.039716 38.120150 117.412515
Au 3.686718 38.747893 119.252909
Au 2.109889 38.307244 116.338312
Au 8.628565 38.180943 120.376046
Au 13.641499 36.285161 121.583803
Au 10.451408 37.493455 123.424197
Au 8.821628 37.337320 120.509600
Au 15.216231 36.065259 124.547334
Au 19.817065 33.316473 125.755091
Au 16.889552 35.067566 127.595485
Au 15.257742 35.200822 124.680888
Au 21.328478 32.822745 128.718622
Au 25.373463 29.306839 129.926379
Au 22.799996 31.546019 131.766773
Au 21.217141 31.964504 128.852176
Au 26.413708 27.804387 129.182456
Au 29.505846 23.787290 130.642814
Au 27.352249 26.067087 132.321008
Au 25.767018 26.800706 129.644932
Au 30.896548 22.719402 133.353744
Au 33.233095 18.220632 134.814102
Au 31.514543 20.843995 136.492296
Au 30.083244 21.845262 133.816220
Au 34.414051 16.924568 137.525032
Au 35.922005 12.084686 138.985390
Au 34.692191 14.969650 140.663584
Au 33.459544 16.207282 137.987508
Au 36.856316 10.600940 141.696320
Au 37.488561 5.571164 143.156678
Au 36.785911 8.627590 144.834872
Au 35.790428 10.062918 142.158796
Au 38.147035 3.946095 145.867608
Au 37.883818 -1.116424 147.327966
Au 37.730285 2.015968 0.925436
Au 37.003070 3.604146 146.330084
Au 38.245882 -2.832043 1.958172
Au 37.095426 -7.769131 3.418530
Au 37.495808 -4.658641 5.096724
Au 37.059582 -2.967233 2.420648
Au 37.149768 -9.521696 6.129460
Au 35.148019 -14.179098 7.589818
Au 36.089805 -11.187694 9.268012
Au 35.958197 -9.445905 6.591936
Au 34.892940 -15.913852 10.300748
Au 32.102441 -20.146050 11.761106
Au 33.556207 -17.367197 13.439300
Au 33.733329 -15.629446 10.763224
Au 31.545911 -21.808793 14.472036
Au 28.053849 -25.483556 15.932394
Au 29.974172 -23.004077 17.610588
Au 30.454490 -21.324659 14.934512
Au 27.213256 -27.022336 18.643324
Au 23.128737 -30.024849 20.103682
Au 25.455619 -27.922213 21.781876
Au 26.224127 -26.353600 19.105800
Au 22.030346 -31.391588 22.814612
Au 17.480988 -33.628041 24.274970
Au 20.141727 -31.967943 25.953164
Au 21.174412 -30.559145 23.277088
Au 16.159116 -34.780036 26.985900
Au 11.287059 -36.180552 28.446258
Au 14.198523 -35.014861 30.124452
Au 15.463120 -33.809895 27.448376
Au 9.783007 -37.081811 31.157188
Au 4.740475 -37.602632 32.617546
Au 7.811698 -36.967769 34.295740
Au 9.268696 -36.004282 31.619664
Au 3.101237 -38.224995 35.328476
Au -1.954220 -37.849849 36.788834
Au 1.180802 -37.765649 38.467028
Au 2.784679 -37.073746 35.790952
Au -3.677429 -38.173871 39.499764
Au -8.587858 -36.914479 40.960122
Au -5.486986 -37.383573 42.638316
Au -3.786343 -36.984871 39.962240
Au -10.341197 -36.930036 43.671052
Au -14.953175 -34.825746 45.131410
Au -11.983338 -35.833478 46.809604
Au -10.239063 -35.740434 44.133528
Au -16.681862 -34.532353 47.842340
Au -20.851293 -31.648912 49.302698
Au -18.105281 -33.163796 50.980892
Au -16.371873 -33.379317 48.304816
Au -22.501317 -31.055735 52.013628
Au -26.097929 -27.483234 53.473986
Au -23.661539 -29.457938 55.152180
Au -21.993157 -29.975292 52.476104
Au -27.617737 -26.608806 56.184916
Au -30.529157 -22.458865 57.645274
Au -28.478512 -24.831692 59.323468
Au -26.927283 -25.634713 56.647392
Au -31.871263 -21.330507 60.356204
Au -34.006527 -16.732787 61.816562
Au -32.405697 -19.429600 63.494756
Au -31.020089 -20.493198 60.818680
Au -35.128998 -15.385754 64.527492
Au -36.421391 -10.483907 65.987850
Au -35.320393 -13.420446 67.666044
Au -34.143697 -14.711391 64.989968
Au -37.289157 -8.960286 68.698780
Au -37.698299 -3.907467 70.159138
Au -37.131533 -6.991982 71.837332
Au -36.200514 -8.469938 69.161256
Au -38.284247 -2.254861 72.870068
Au -37.797355 2.791060 74.330426
Au -37.782529 -0.345058 76.008620
Au -37.126276 -1.963849 73.332544
Au -38.083177 4.521015 77.041356
Au -36.715464 9.402382 78.501714
Au -37.253041 6.312646 80.179908
Au -36.892058 4.603598 77.503832
Au -36.692230 11.155635 81.212644
Au -34.486428 15.719934 82.673002
Au -35.559612 12.773117 84.351196
Au -35.505178 11.027211 81.675120
Au -34.154865 17.441708 85.383932
Au -31.179893 21.546330 86.844290
Au -32.755153 18.834502 88.522484
Au -33.008969 17.106287 85.846408
Au -30.550359 23.182828 89.555220
Au -26.899168 26.699529 91.015578
Au -28.927287 24.307419 92.693772
Au -29.481421 22.650891 90.017696
Au -25.991332 28.199620 93.726508
Au -21.778000 31.018523 95.186866
Au -24.195611 29.020871 96.865060
Au -25.032751 27.487787 94.188984
Au -20.620228 32.335339 97.897796
Au -15.976397 34.368369 99.358154
Au -18.707963 32.827590 101.036348
Au -19.801954 31.465849 98.360272
Au -14.604862 35.460766 102.069084
Au -9.675625 36.644404 103.529442
Au -12.635801 35.608638 105.207636
Au -13.952461 34.460788 102.531560
Au -8.133180 37.478251 106.240372
Au -3.072545 37.775515 107.700730
Au -6.168844 37.277123 109.378924
Au -7.667034 36.379028 106.702848
Au -1.407382 38.324760 110.411660
Au 3.626533 37.726361 111.872018
Au 0.490854 37.780916 113.550212
Au -1.142058 37.160635 110.874136
Au 5.362388 37.973843 114.582948
Au 10.212303 36.498478 116.043306
Au 7.135216 37.104275 117.721500
Au 5.418601 36.781188 115.045424
Au 11.964614 36.436465 118.754236
Au 16.478999 34.130231 120.214594
Au 13.556644 35.268342 121.892788
Au 11.809961 35.252544 119.216712
Au 18.193016 33.760659 122.925524
Au 22.230822 30.695613 124.385882
Au 19.554505 32.330479 126.064076
Au 17.832327 32.622464 123.388000
Au 23.852992 30.030030 127.096812
Au 27.288061 26.301935 128.557170
Au 24.941403 28.382477 130.235364
Au 23.297538 28.973122 127.559288
Au 28.012059 24.799484 128.039409
Au 30.544212 20.678450 129.706649
Au 28.576006 22.782536 131.241675
Au 27.003114 23.637164 128.760948
Au 31.940860 19.480022 132.210697
Au 33.707872 14.977535 133.877937
Au 32.140877 17.395291 135.412963
Au 30.743029 18.513504 132.932236
Au 34.871696 13.551924 136.381985
Au 35.818357 8.808660 138.049225
Au 34.701532 11.464544 139.584251
Au 33.522404 12.811405 137.103524
Au 36.712994 7.200407 140.553273
Au 36.809727 2.364565 142.220513
Au 36.177967 5.175596 143.755539
Au 35.254399 6.709024 141.274812
Au 37.407226 0.623919 144.724561
Au 36.651008 -4.153408 146.391801
Au 36.524051 -1.275058 147.926827
Au 35.884900 0.397025 145.446100
Au 36.932699 -5.972062 0.815125
Au 35.347158 -10.541612 2.482365
Au 35.728972 -7.685875 4.017391
Au 35.394207 -5.927378 1.536664
Au 35.304241 -12.381452 4.986413
Au 32.938916 -16.600452 6.653653
Au 33.817570 -13.856552 8.188679
Au 33.797651 -12.066585 5.707952
Au 32.572732 -18.403993 9.157701
Au 29.501524 -22.140624 10.824941
Au 30.849567 -19.594293 12.359967
Au 31.145115 -17.828782 9.879240
Au 28.823514 -23.851517 13.328989
Au 25.142382 -26.989031 14.996229
Au 26.917694 -24.719827 16.531255
Au 27.519476 -23.033934 14.050528
Au 24.173729 -28.553820 17.500277
Au 19.997687 -30.994188 19.167517
Au 22.144800 -29.073010 20.702543
Au 23.034014 -27.519409 18.221816
Au 18.768657 -32.363982 21.671565
Au 14.228181 -34.030957 23.338805
Au 16.680010 -32.517831 24.873831
Au 17.828873 -31.145063 22.393104
Au 12.777173 -35.162959 25.842853
Au 8.014127 -36.004457 27.510093
Au 10.694068 -34.946660 29.045119
Au 12.066684 -33.797615 26.564392
Au 6.386477 -36.863298 30.014141
Au 1.549679 -36.853028 31.681381
Au 4.373998 -36.283608 33.216407
Au 5.927481 -35.394189 30.735680
Au -0.203759 -37.411874 34.185429
Au -4.963189 -36.550156 35.852669
Au -2.082734 -36.486906 37.387695
Au -0.396921 -35.884901 34.906968
Au -6.787629 -36.791547 38.356717
Au -11.320985 -35.105305 40.023957
Au -8.474393 -35.550201 41.558983
Au -6.708921 -35.254419 39.078256
Au -13.159425 -35.021698 42.528005
Au -17.325067 -32.563618 44.195245
Au -14.601276 -33.502758 45.730271
Au -12.811307 -33.522441 43.249544
Au -19.120066 -32.157626 46.699293
Au -22.787841 -29.004508 48.366533
Au -20.271955 -30.408550 49.901559
Au -18.513414 -30.743083 47.420832
Au -24.483316 -28.288815 50.870581
Au -27.538628 -24.539176 52.537821
Au -25.309253 -26.364252 54.072847
Au -23.637085 -27.003183 51.592120
Au -29.081605 -23.536143 55.041869
Au -31.428993 -19.307137 56.709109
Au -29.555785 -21.496225 58.244135
Au -28.022235 -22.419590 55.763408
Au -32.771264 -18.048105 59.213157
Au -34.337386 -13.471863 60.880397
Au -32.878870 -15.956566 62.415423
Au -31.531853 -17.135516 59.934696
Au -35.437011 -11.996168 63.384445
Au -36.172935 -7.215672 65.051685
Au -35.174682 -9.918358 66.586711
Au -34.056284 -11.316057 64.105984
Au -36.995559 -5.569421 67.555733
Au -36.878291 -0.734033 69.222973
Au -36.371491 -3.570258 70.757999
Au -35.516656 -5.143037 68.277272
Au -37.398211 1.031338 71.727021
Au -36.431416 5.770540 73.394261
Au -36.431902 2.889391 74.929287
Au -35.867338 1.190672 72.448560
Au -36.632386 7.599874 75.898309
Au -34.846271 12.094817 77.565549
Au -35.354029 9.258764 79.100575
Au -35.097376 7.487181 76.619848
Au -34.722013 13.930958 80.069597
Au -32.172383 18.041202 81.736837
Au -33.171549 15.338854 83.271863
Au -33.230825 13.549758 80.791136
Au -31.726780 19.826781 84.240885
Au -28.493295 23.423904 85.908125
Au -29.952651 20.939695 87.443151
Au -30.326004 19.188985 84.962424
Au -27.740270 25.103132 88.412173
Au -23.923959 28.074746 90.079413
Au -25.797907 25.886292 91.614439
Au -26.473673 24.228667 89.133712
Au -22.887038 29.595157 92.583461
Au -18.607137 31.848416 94.250701
Au -20.837129 30.024093 95.785727
Au -21.794193 28.511345 93.305000
Au -17.318719 33.162506 96.754749
Au -12.708952 34.627008 98.421989
Au -15.225312 33.223816 99.957015
Au -16.433772 31.903210 97.476288
Au -11.209292 35.693719 100.926037
Au -6.413686 36.323709 102.593277
Au -9.137793 35.385489 104.128303
Au -10.559892 34.298285 101.647576
Au -4.749639 37.109712 105.097325
Au 0.081971 36.885505 106.764565
Au -2.764771 36.441572 108.299591
Au -4.356076 35.621739 105.818864
Au 1.858412 37.366243 109.268613
Au 6.575067 36.294844 110.935853
Au 3.694634 36.359067 112.470879
Au 1.983841 35.832221 109.990152
Au 8.408399 36.455296 113.439901
Au 12.862729 34.570180 115.107141
Au 10.038603 35.140554 116.642167
Au 8.261776 34.923155 114.161440
Au 14.695672 34.405334 117.611189
Au 18.748507 31.765400 119.278429
Au 16.068924 32.824103 120.813455
Au 14.281577 32.922944 118.332728
Au 20.523791 31.280406 121.782477
Au 24.048503 27.968137 123.449717
Au 21.597185 29.482091 124.984743
Au 19.855163 29.894082 122.504016
Au 25.710661 27.178147 125.953765
Au 28.597124 23.297032 127.621005
Au 26.450660 25.218935 129.156031
Au 24.808391 25.931205 126.675304
Au 29.051651 21.794580 127.295953
Au 31.060145 17.615964 129.145565
Au 29.274216 19.544616 130.539659
Au 27.743958 20.473622 128.231139
Au 32.435143 16.339022 131.467241
Au 33.676537 11.872052 133.316853
Au 32.258084 14.085021 134.710947
Au 30.915299 15.268944 132.402427
Au 34.805226 10.372965 135.638529
Au 35.240734 5.757208 137.488141
Au 34.234074 8.185350 138.882235
Au 33.120718 9.587200 136.573715
Au 36.087848 4.082813 139.809817
Au 35.703863 -0.537515 141.659429
Au 35.140448 2.029936 143.053523
Au 34.291308 3.605912 140.745003
Au 36.242936 -2.334903 143.981105
Au 35.051455 -6.815444 145.830717
Au 34.948889 -4.188903 147.224811
Au 34.390494 -2.488039 144.916291
Au 35.265643 -8.679667 0.071669
Au 33.303893 -12.880431 1.921281
Au 33.665381 -10.276862 3.315375
Au 33.415177 -8.504254 1.006855
Au 33.186504 -14.753241 4.242957
Au 30.515778 -18.542978 6.092569
Au 31.330025 -16.043730 7.486663
Au 31.395831 -14.254760 5.178143
Au 30.070480 -20.365863 8.414245
Au 26.774224 -23.626166 10.263857
Au 28.015789 -21.309325 11.657951
Au 28.395548 -19.559889 9.349431
Au 26.014929 -25.342171 12.585533
Au 22.196130 -27.971174 14.435145
Au 23.826223 -25.909127 15.829239
Au 24.508070 -24.253884 13.520719
Au 21.146563 -29.526683 16.756821
Au 16.924537 -31.442246 18.606433
Au 18.892226 -29.699420 20.000527
Au 19.854857 -28.190087 17.692007
Au 15.617490 -32.788659 20.928109
Au 11.124151 -33.930930 22.777721
Au 13.367958 -32.561779 24.171815
Au 14.581296 -31.245515 21.863295
Au 9.600462 -35.026180 25.099397
Au 4.976200 -35.359471 26.949009
Au 7.426018 -34.406773 28.343103
Au 8.852154 -33.324702 26.034583
Au 3.283475 -36.169337 29.270685
Au -1.327228 -35.683235 31.120297
Au 1.252059 -35.176755 32.514391
Au 2.846435 -34.362686 30.205871
Au -3.136101 -36.182413 33.441973
Au -7.589188 -34.892105 35.291585
Au -4.961020 -34.847669 36.685679
Au -3.248220 -34.327037 34.377159
Au -9.457692 -35.065000 37.613261
Au -13.614030 -33.010801 39.462873
Au -11.019096 -33.429796 40.856967
Au -9.241386 -33.218868 38.548447
Au -15.483786 -32.852010 41.784549
Au -19.213513 -30.098101 43.634161
Au -16.732889 -30.967437 45.028255
Au -14.945813 -31.072802 42.719735
Au -21.026101 -29.612586 45.955837
Au -24.212686 -26.245011 47.805449
Au -21.923877 -27.537526 49.199543
Au -20.183271 -27.955893 46.891023
Au -25.911474 -25.447941 50.127125
Au -28.455353 -21.571918 51.976737
Au -26.429872 -23.247228 53.370831
Au -24.790118 -23.965526 51.062311
Au -29.987264 -20.488196 54.298413
Au -31.808957 -16.224828 56.148025
Au -30.110087 -18.230590 57.542119
Au -28.622420 -19.226375 55.233599
Au -33.126126 -14.888315 58.469701
Au -34.168716 -10.370806 60.319313
Au -32.849538 -12.644352 61.713407
Au -31.560437 -13.886512 59.404887
Au -35.229991 -8.823261 62.640989
Au -35.460902 -4.192757 64.490601
Au -34.562632 -6.663051 65.884695
Au -33.512375 -8.112776 63.576175
Au -36.233123 -2.482531 66.812277
Au -35.645141 2.116291 68.661889
Au -35.195845 -0.473569 70.055983
Au -34.417246 -2.085564 67.747463
Au -36.104182 3.935764 70.983565
Au -34.715678 8.359217 72.833177
Au -34.729393 5.730709 74.227271
Au -34.246779 4.006811 71.918751
Au -34.847195 10.231089 75.154853
Au -32.701551 14.340966 77.004465
Au -33.177850 11.755936 78.398559
Au -33.006299 9.973995 76.090039
Au -32.501436 16.206751 79.326141
Au -29.665692 19.874644 81.175753
Au -30.589692 17.413859 82.569847
Au -30.734566 15.629551 80.261327
Au -29.140198 21.676048 83.497429
Au -25.702953 24.787355 85.347041
Au -27.045785 22.527700 86.741135
Au -27.502556 20.796774 84.432615
Au -24.868497 26.468094 87.668717
Au -20.937147 28.925606 89.518329
Au -22.656855 26.937681 90.912423
Au -23.411251 25.314219 88.603903
Au -19.819801 30.433167 91.840005
Au -15.517176 32.160100 93.689617
Au -17.560030 30.506017 95.083711
Au -18.588482 29.040742 92.775191
Au -14.151852 33.447380 96.011293
Au -9.612385 34.389778 97.860905
Au -11.914557 33.121218 99.254999
Au -13.184931 31.859912 96.946479
Au -8.041740 35.416558 100.182581
Au -3.407262 35.544976 102.032193
Au -5.896823 34.701574 103.426287
Au -7.369427 33.683645 101.117767
Au -1.680371 36.279175 104.353869
Au 2.904318 35.589601 106.203481
Au 0.305152 35.197708 107.597575
Au -1.323672 34.454960 105.289055
Au 4.733500 36.008279 108.525157
Au 9.125154 34.522259 110.374769
Au 6.497593 34.594119 111.768863
Au 4.763440 34.149759 109.460343
Au 10.999477 34.612334 112.696445
Au 15.060883 32.376296 114.546057
Au 12.487023 32.909665 115.940151
Au 10.701723 32.777576 113.631631
Au 16.921785 32.134955 116.867733
Au 20.526047 29.218764 118.717345
Au 18.086305 30.196976 120.111439
Au 16.305639 30.381286 117.802919
Au 22.315385 28.653547 121.039021
Au 25.349892 25.148315 122.888633
Au 23.120496 26.540807 124.282727
Au 21.400098 27.035757 121.974207
Au 27.011760 24.276882 125.210309
Au 29.381700 20.292128 127.059921
Au 27.432306 22.055393 128.454015
Au 25.825930 22.845519 126.145495
Au 29.591436 18.789676 126.909931
Au 31.095099 14.596154 128.929801
Au 29.502324 16.348407 130.175153
Au 28.028849 17.310080 128.027402
Au 32.437426 13.286022 131.081219
Au 33.179251 8.893264 133.101089
Au 31.919876 10.898580 134.346441
Au 30.638740 12.104663 132.198690
Au 34.269936 7.367257 135.252507
Au 34.226746 2.912511 137.272377
Au 33.340118 5.108236 138.517729
Au 32.291348 6.521045 136.369978
Au 35.031710 1.218309 139.423795
Au 34.204854 -3.159241 141.443665
Au 33.718675 -0.841710 142.689017
Au 32.935041 0.733683 140.541266
Au 34.698948 -4.968705 143.595083
Au 33.114260 -9.132285 145.614953
Au 33.043721 -6.765358 146.860305
Au 32.549705 -5.076602 144.712554
Au 33.282045 -11.000476 147.766371
Au 30.989039 -14.819998 1.705517
Au 31.336342 -12.477628 2.950869
Au 31.147381 -10.728274 0.803118
Au 30.825273 -16.688546 3.856935
Au 27.895590 -20.044673 5.876805
Au 28.649886 -17.800044 7.122157
Au 28.771883 -16.044749 4.974406
Au 27.405390 -21.855196 8.028223
Au 23.930567 -24.643068 10.048093
Au 25.068287 -22.566313 11.293445
Au 25.497431 -20.859919 9.145694
Au 23.129249 -26.338998 12.199511
Au 19.217853 -28.471512 14.219381
Au 20.703451 -26.627517 15.464733
Au 21.426333 -25.023338 13.316982
Au 18.130454 -29.999861 16.370799
Au 13.904693 -31.410386 18.390669
Au 15.691753 -29.856765 19.636021
Au 16.685787 -28.404924 17.488270
Au 12.565187 -32.723403 20.542087
Au 8.157093 -33.367869 22.561957
Au 10.189778 -32.153164 23.807309
Au 11.423907 -30.899022 21.659558
Au 6.607332 -34.424529 24.713375
Au 2.154631 -34.282801 26.733245
Au 4.369433 -33.444964 27.978597
Au 5.805097 -32.427705 25.830846
Au 0.443036 -35.050089 28.884663
Au -3.915151 -34.126595 30.904533
Au -1.587432 -33.691803 32.149885
Au 0.004912 -32.943212 30.002134
Au -5.735102 -34.580538 33.055951
Au -9.862607 -32.904131 35.075821
Au -7.494698 -32.885970 36.321173
Au -5.795427 -32.429435 34.173422
Au -11.734052 -33.030547 37.227239
Au -15.501914 -30.653606 39.247109
Au -13.167800 -31.052642 40.492461
Au -11.414693 -30.902427 38.344710
Au -17.366381 -30.448544 41.398527
Au -20.656876 -27.445333 43.418397
Au -18.429484 -28.249100 44.663749
Au -16.677316 -28.409899 42.515998
Au -22.456112 -26.915201 45.569815
Au -25.166432 -23.379555 47.589685
Au -23.115354 -24.562939 48.835037
Au -21.418871 -25.029726 46.687286
Au -26.844220 -22.540915 49.741103
Au -28.889683 -18.583301 51.760973
Au -27.079004 -20.109328 53.006325
Au -25.491210 -20.867521 50.858574
Au -30.393603 -17.462357 53.912391
Au -31.710300 -13.206427 55.932261
Au -30.196593 -15.027419 57.177613
Au -28.767097 -16.053327 55.029862
Au -32.993363 -11.838202 58.083679
Au -33.540155 -7.416930 60.103549
Au -32.370714 -9.475990 61.348901
Au -31.144181 -10.737561 59.201150
Au -34.562272 -5.844173 62.254967
Au -34.322076 -1.395697 64.274837
Au -33.533440 -3.628491 65.520189
Au -32.548190 -5.086308 63.372438
Au -35.051312 0.332453 66.426255
Au -34.031632 4.669144 68.446125
Au -33.648441 2.332376 69.691477
Au -32.935258 0.723862 67.543726
Au -34.445203 6.498692 70.597543
Au -32.677897 10.588101 72.617413
Au -32.712124 8.220371 73.862765
Au -32.293292 6.511416 71.715014
Au -32.762882 12.461885 74.768831
Au -30.303169 16.176242 76.788701
Au -30.753744 13.851526 78.034053
Au -30.642348 12.095526 75.886302
Au -30.056912 18.035716 78.940119
Au -26.981644 21.258969 80.959989
Au -27.834488 19.049903 82.205341
Au -28.034009 17.301721 80.057590
Au -26.411838 23.046037 83.111407
Au -22.817099 25.677478 85.131277
Au -24.045568 23.653080 86.376629
Au -24.549771 21.967339 84.228878
Au -21.941549 27.336303 87.282695
Au -17.939653 29.293715 89.302565
Au -19.505363 27.517237 90.547917
Au -20.298496 25.946605 88.400166
Au -16.785714 30.772468 91.453983
Au -12.501697 31.994694 93.473853
Au -14.355729 30.521641 94.719205
Au -15.413011 29.115191 92.571454
Au -11.105423 33.247174 95.625271
Au -6.673137 33.696025 97.645141
Au -8.757563 32.572421 98.890493
Au -10.045959 31.374096 96.742742
Au -5.078153 34.683099 99.796559
Au -0.636079 34.344552 101.816429
Au -2.885774 33.605503 103.061781
Au -4.365029 32.652745 100.914030
Au 1.107780 35.035380 103.967847
Au 5.420852 33.920012 105.987717
Au 3.076179 33.588609 107.233069
Au 1.452282 32.911185 105.085318
Au 7.259102 34.293009 108.139135
Au 11.308413 32.435669 110.159005
Au 8.942019 32.522267 111.404357
Au 7.224218 32.141342 109.256606
Au 13.183619 32.479181 112.310423
Au 16.842652 29.937901 114.330293
Au 14.528474 30.439793 115.575645
Au 12.770439 30.367270 113.427894
Au 18.696224 29.650568 116.481711
Au 21.850657 26.504748 118.501581
Au 19.660998 27.406253 119.746933
Au 17.917658 27.644398 117.599182
Au 23.624682 25.895548 120.652999
Au 26.175956 22.243476 122.672869
Au 24.179230 23.516428 123.918221
Au 22.505055 24.057800 121.770470
Au 27.815006 21.331443 124.824287
Au 29.683408 17.287225 126.844157
Au 27.942003 18.891851 128.089509
Au 26.389300 19.719535 125.941758
Au 29.658713 15.784773 126.861817
Au 30.663826 11.617711 129.048765
Au 29.286009 13.191629 130.129722
Au 27.871771 14.146538 128.139735
Au 31.974584 10.316216 131.033105
Au 32.230306 6.037284 133.220053
Au 31.151131 7.829205 134.301010
Au 29.927116 9.018198 132.311023
Au 33.291435 4.525338 135.204393
Au 32.789777 0.268227 137.391341
Au 32.042962 2.222163 138.472298
Au 31.047413 3.608092 136.482311
Au 33.568123 -1.406931 139.375681
Au 32.324759 -5.509211 141.562629
Au 31.933637 -3.454309 142.643586
Au 31.197659 -1.914746 140.653599
Au 32.796003 -7.295241 143.546969
Au 30.849780 -11.114518 145.733917
Au 30.826572 -9.022853 146.814874