288
timestep 0 101.667777 101.670591 148.772896
Au -16.290021 23.268270 10.428220
Au -14.526563 22.690286 12.646214
Au -11.938727 25.772931 14.599508
Au -10.304583 24.893486 16.817502
Au -7.214418 27.472338 18.770796
Au -5.760645 26.318911 20.988790
Au -2.264700 28.313395 22.942084
Au -1.036720 26.922023 25.160078
Au 2.755777 28.269823 27.113372
Au 3.719596 26.683978 29.331366
Au 7.690152 27.342984 31.284660
Au 8.359697 25.612215 33.502654
Au 12.384254 25.561836 35.455948
Au 12.738606 23.740220 37.673942
Au 16.691421 22.982029 39.627236
Au 16.719507 21.126480 41.845230
Au 20.477078 19.684168 43.798524
Au 20.178022 17.852662 46.016518
Au 23.622945 15.771292 47.969812
Au 23.006091 14.021052 50.187806
Au 26.030734 11.365654 52.141100
Au 25.115353 9.751366 54.359094
Au 27.625213 6.604907 56.312388
Au 26.439908 5.177006 58.530382
Au 28.356566 1.637794 60.483676
Au 26.938369 0.440895 62.701670
Au 28.201941 -3.380490 64.654964
Au 26.595163 -4.308991 66.872958
Au 27.166170 -8.293154 68.826252
Au 25.421013 -8.924247 71.044246
Au 25.281614 -12.946705 72.997540
Au 23.452605 -13.260671 75.215534
Au 22.607156 -17.195746 77.168828
Au 20.751440 -17.182778 79.386822
Au 19.226355 -20.907521 81.340116
Au 17.401913 -20.568022 83.558110
Au 15.244843 -23.966058 85.511404
Au 13.508678 -23.310635 87.729398
Au 10.787019 -26.275795 89.682692
Au 9.193375 -25.324928 91.900686
Au 5.992163 -27.764567 93.853980
Au 4.590833 -26.547963 96.071974
Au 1.010087 -28.385858 98.025268
Au -0.155146 -26.941530 100.243262
Au -4.003549 -28.120256 102.196556
Au -4.896277 -26.493331 104.414550
Au -8.892097 -26.976060 106.367844
Au -9.484429 -25.217369 108.585838
Au -13.502818 -24.989019 110.539132
Au -13.776247 -23.153512 112.757126
Au -17.691656 -22.221218 114.710420
Au -17.637638 -20.366243 116.928414
Au -21.327732 -18.759132 118.881708
Au -20.947955 -16.942647 121.099702
Au -24.297441 -14.710933 123.052996
Au -23.603771 -12.989692 125.270990
Au -26.507996 -10.203104 127.224284
Au -25.522107 -8.630885 129.442278
Au -27.890331 -5.376486 131.395572
Au -26.643025 -4.002413 133.613566
Au -28.401256 -0.381885 135.566860
Au -26.931505 0.751111 137.784854
Au -28.024807 4.624648 139.738148
Au -26.378531 5.481167 141.956142
Au -26.772746 9.486687 143.909436
Au -25.001383 10.039968 146.127430
Au -24.684193 14.052323 0.000000
Au -22.843087 14.285079 2.217994
Au -21.824403 18.178906 4.171288
Au -19.971077 18.083865 6.389282
Au -18.282727 21.737504 8.342576
Au -16.475088 21.317635 10.560570
Au -16.592692 19.367000 10.644673
Au -15.039872 18.819234 12.767198
Au -12.923561 21.985898 14.815961
Au -11.491443 21.173286 16.938486
Au -8.850643 23.917865 18.987249
Au -7.583974 22.865796 21.109774
Au -4.501195 25.102537 23.158537
Au -3.439549 23.843884 25.281062
Au -0.011111 25.502902 27.329825
Au 0.812341 24.076989 29.452350
Au 4.479321 25.106450 31.501113
Au 5.038850 23.557828 33.623638
Au 8.829800 23.925567 35.672401
Au 9.107925 22.302623 37.794926
Au 12.904399 21.997150 39.843689
Au 12.892430 20.350591 41.966214
Au 16.575811 19.381450 44.014977
Au 16.274121 17.762721 46.137502
Au 19.729326 16.160193 48.186265
Au 19.147341 14.619870 50.308790
Au 22.266414 12.434024 52.357553
Au 21.422319 11.020233 54.480078
Au 24.107806 8.319364 56.528841
Au 23.027974 7.076278 58.651366
Au 25.195970 3.944773 60.700129
Au 23.914139 2.911231 62.822654
Au 25.496907 -0.553070 64.871417
Au 24.053126 -1.344775 66.993942
Au 25.001214 -5.033632 69.042705
Au 23.440593 -5.558765 71.165230
Au 23.724378 -9.356923 73.213993
Au 22.095679 -9.599076 75.336518
Au 21.706295 -13.387864 77.385281
Au 20.060403 -13.339472 79.507806
Au 19.010016 -17.000513 81.556569
Au 17.398357 -16.663087 83.679094
Au 15.719785 -20.081995 85.727857
Au 14.192713 -19.466078 87.850382
Au 11.938402 -22.536031 89.899145
Au 10.543630 -21.660867 92.021670
Au 7.784013 -24.285948 94.070433
Au 6.565120 -23.178880 96.192958
Au 3.386420 -25.277071 98.241721
Au 2.381488 -23.972689 100.364246
Au -1.116979 -25.478432 102.413009
Au -1.876552 -24.017490 104.535534
Au -5.585479 -24.883741 106.584297
Au -6.075960 -23.311885 108.706822
Au -9.879466 -23.511578 110.755585
Au -10.085530 -21.877920 112.878110
Au -13.864776 -21.404815 114.926873
Au -13.779986 -19.760397 117.049398
Au -17.416894 -18.629277 119.098161
Au -17.043897 -17.025477 121.220686
Au -20.424835 -15.271682 123.269449
Au -19.775286 -13.758610 125.391974
Au -22.794618 -11.436936 127.440737
Au -21.888813 -10.061866 129.563262
Au -24.452203 -7.244853 131.612025
Au -23.318442 -6.050748 133.734550
Au -25.345799 -2.826410 135.783313
Au -24.019506 -1.850579 137.905838
Au -25.447487 1.680342 139.954601
Au -23.970100 2.407409 142.077126
Au -24.754089 6.134593 144.125889
Au -23.171768 6.590180 146.248414
Au -23.287270 10.397173 0.216453
Au -21.649453 10.567047 2.338978
Au -21.092859 14.334903 4.387741
Au -19.450719 14.213754 6.510266
Au -18.239420 17.824750 8.559029
Au -16.644264 17.416365 10.681554
Au -16.630417 15.465730 10.671652
Au -15.291755 14.924986 12.700492
Au -13.647587 18.152216 14.842940
Au -12.425045 17.384223 16.871780
Au -10.238349 20.271551 19.014228
Au -9.170126 19.300305 21.043068
Au -6.509223 21.757518 23.185516
Au -5.628693 20.613364 25.214356
Au -2.576722 22.563689 27.356804
Au -1.911397 21.282376 29.385644
Au 1.436287 22.664877 31.528092
Au 1.865619 21.286438 33.556932
Au 5.404421 22.057919 35.699380
Au 5.584346 20.625422 37.728220
Au 9.203698 20.761780 39.870668
Au 9.128594 19.319983 41.899508
Au 12.715413 18.816957 44.041956
Au 12.387627 17.410906 46.070796
Au 15.829845 16.284213 48.213244
Au 15.259619 14.957840 50.242084
Au 18.449687 13.242682 52.384532
Au 17.654837 12.037429 54.413372
Au 20.493084 9.787395 56.555820
Au 19.498444 8.740919 58.584660
Au 21.896191 6.026308 60.727108
Au 20.732838 5.171305 62.755948
Au 22.615170 2.076935 64.898396
Au 21.319452 1.440119 66.927236
Au 22.627557 -1.937330 69.069684
Au 21.239957 -2.336063 71.098524
Au 21.932964 -5.891066 73.240972
Au 20.496837 -6.039257 75.269812
Au 20.553094 -9.660739 77.412260
Au 19.113311 -9.553759 79.441100
Au 18.531060 -13.128571 81.583548
Au 17.132605 -12.769761 83.612388
Au 15.930038 -16.186212 85.754836
Au 14.616605 -15.586783 87.783676
Au 12.831296 -18.738127 89.926124
Au 11.643922 -17.916809 91.954964
Au 9.331650 -20.704586 94.097412
Au 8.307433 -19.687039 96.126252
Au 5.540444 -22.024147 98.268700
Au 4.711386 -20.842164 100.297540
Au 1.576132 -22.655582 102.439988
Au 0.968135 -21.346093 104.468828
Au -2.437425 -22.579161 106.611276
Au -2.805364 -21.183081 108.640116
Au -6.374827 -21.797274 110.782564
Au -6.491212 -20.358220 112.811404
Au -10.113052 -20.334349 114.953852
Au -9.974247 -18.897285 116.982692
Au -13.535304 -18.236094 119.125140
Au -13.145645 -16.845919 121.153980
Au -16.534656 -15.568067 123.296428
Au -15.906319 -14.268216 125.325268
Au -19.017397 -12.413629 127.467716
Au -18.170012 -11.244715 129.496556
Au -20.905955 -8.871337 131.639004
Au -19.865999 -7.869882 133.667844
Au -22.141323 -5.051868 135.810292
Au -20.941289 -4.249161 137.839132
Au -22.684905 -1.074558 139.981580
Au -21.362286 -0.495678 142.010420
Au -22.519715 2.936327 144.152868
Au -21.115836 3.273291 146.181708
Au -21.650915 6.855468 0.243432
Au -20.209639 6.939989 2.272272
Au -20.105651 10.560416 4.414720
Au -18.672009 10.389853 6.443560
Au -17.932202 13.935412 8.586008
Au -16.550987 13.515095 10.614848
Au -16.405022 11.564460 10.510463
Au -15.277695 11.007142 12.442852
Au -14.112604 14.272207 14.681751
Au -13.101014 13.525109 16.614140
Au -11.379250 16.534031 18.853039
Au -10.515003 15.620494 20.785428
Au -8.290360 18.279262 23.024327
Au -7.600460 17.227831 24.956716
Au -4.942445 19.453373 27.195615
Au -4.448446 18.296898 29.128004
Au -1.440107 20.019680 31.366903
Au -1.157444 18.794293 33.299292
Au 2.107226 19.960488 35.538191
Au 2.169721 18.704477 37.470580
Au 5.588720 19.277648 39.709479
Au 5.429094 18.030254 41.641868
Au 8.895600 17.992493 43.880767
Au 8.518841 16.792691 45.813156
Au 11.924543 16.145178 48.052055
Au 11.342423 15.030455 49.984444
Au 14.580914 13.793420 52.223343
Au 13.811620 12.798604 54.155732
Au 16.781717 11.010698 56.394631
Au 15.849285 10.166872 58.327020
Au 18.458189 7.883956 60.565919
Au 17.391753 7.217484 62.498308
Au 19.557950 4.510886 64.737207
Au 18.390829 4.042592 66.669596
Au 20.046639 0.996877 68.908495
Au 18.815299 0.741392 70.840884
Au 19.908987 -2.548278 73.079783
Au 18.651900 -2.582972 75.012172
Au 19.149296 -6.013814 77.251071
Au 17.905739 -5.826633 79.183460
Au 17.791300 -9.291454 81.422359
Au 16.600127 -8.888245 83.354748
Au 15.877431 -12.278790 85.593647
Au 14.775859 -11.672152 87.526036
Au 13.467484 -14.882485 89.764935
Au 12.489930 -14.091372 91.697324
Au 10.636756 -17.021190 93.936223
Au 9.813765 -16.070319 95.868612
Au 7.473692 -18.628081 98.107511
Au 6.830976 -17.547162 100.039900
Au 4.077119 -19.652954 102.278799
Au 3.634759 -18.475759 104.211188
Au 0.553160 -20.063786 106.450087
Au 0.324977 -18.827095 108.382476
Au -2.988083 -19.847742 110.621375
Au -2.994959 -18.590195 112.553764
Au -6.435965 -19.011571 114.792663
Au -6.221319 -17.772460 116.725052
Au -9.682761 -17.581400 118.963951
Au -9.253300 -16.399438 120.896340
Au -12.627027 -15.601913 123.135239
Au -11.996169 -14.514030 125.067628
Au -15.176772 -13.134956 127.306527
Au -14.364227 -12.175143 129.238916
Au -17.252332 -10.257609 131.477815
Au -16.283487 -9.455854 133.410204
Au -18.788856 -7.059771 135.649103
Au -17.693983 -6.441124 137.581492
Au -19.738339 -3.641357 139.820391
Au -18.551646 -3.225147 141.752780
Au -20.071113 -0.109172 143.991679
Au -18.829677 0.091597 145.924068
Au -19.776782 3.426425 0.082243
Au -18.519391 3.405479 2.014632
Au -18.864542 6.854966 4.253531
Au -17.630482 6.612960 6.185920
Au -17.362895 10.069329 8.424819
Au -16.190723 9.613825 10.357208
