
9504 atoms

2 atom types

-51.827299 51.829351 xlo xhi
-51.813937 51.820313 ylo yhi
0.000000 156.330589 zlo zhi

Masses

1 28.085500
2 15.999400

Atoms

1 1 1 0.0 20.004091 17.421259 152.160268
2 1 1 0.0 15.346486 23.888290 147.252012
3 1 1 0.0 20.797365 17.846726 148.863144
4 1 1 0.0 19.150848 21.875835 147.515144
5 1 2 0.0 18.212803 18.349010 151.511118
6 1 2 0.0 18.885916 22.951478 145.706579
7 1 2 0.0 15.162633 20.615969 146.416196
8 1 2 0.0 19.709951 19.913514 147.842021
9 1 2 0.0 20.494362 21.848020 148.679699
10 1 2 0.0 20.859389 17.301148 150.715913
11 1 2 0.0 17.382039 22.678738 147.878356
12 1 2 0.0 14.466196 23.587773 145.788381
13 1 1 0.0 18.843855 12.450455 152.036637
14 1 1 0.0 15.441048 18.760585 147.013474
15 1 1 0.0 20.005602 12.900929 148.745517
16 1 1 0.0 18.906954 16.844405 147.264539
17 1 2 0.0 17.267124 13.299271 151.406923
18 1 2 0.0 18.938918 17.952413 145.427104
19 1 2 0.0 15.127546 15.504425 146.341674
20 1 2 0.0 19.241540 14.912444 147.671533
21 1 2 0.0 20.088009 16.830669 148.369220
22 1 2 0.0 19.823076 12.359453 150.590479
23 1 2 0.0 17.225474 17.587742 147.638738
24 1 2 0.0 14.751167 18.480393 145.594475
25 1 1 0.0 17.345647 7.571338 152.151290
26 1 1 0.0 15.191843 13.650071 147.009143
27 1 1 0.0 18.818771 8.032447 148.901811
28 1 1 0.0 18.270175 11.860993 147.283259
29 1 2 0.0 15.999782 8.319754 151.526758
30 1 2 0.0 18.575354 12.983245 145.431809
31 1 2 0.0 14.747595 10.402640 146.501908
32 1 2 0.0 18.380057 9.968087 147.771277
33 1 2 0.0 19.283073 11.882387 148.333994
34 1 2 0.0 18.416458 7.509645 150.724659
35 1 2 0.0 16.706059 12.533131 147.647257
36 1 2 0.0 14.688402 13.373013 145.637183
37 1 1 0.0 15.497462 2.787163 152.512690
38 1 1 0.0 14.599334 8.556726 147.238703
39 1 1 0.0 17.220156 3.244554 149.343616
40 1 1 0.0 17.238520 6.925841 147.572670
41 1 2 0.0 14.398040 3.413239 151.879491
42 1 2 0.0 17.794719 8.044010 145.721037
43 1 2 0.0 14.005198 5.311111 146.908864
44 1 2 0.0 17.114843 5.081981 148.148582
45 1 2 0.0 18.083281 7.002530 148.571452
46 1 2 0.0 16.625383 2.755238 151.128374
47 1 2 0.0 15.822887 7.514993 147.904533
48 1 2 0.0 14.273314 8.265633 145.919626
49 1 1 0.0 15.792213 18.719523 155.157532
50 1 1 0.0 11.025144 24.321096 150.203482
51 1 1 0.0 16.497016 18.855183 151.866606
52 1 1 0.0 14.861081 22.646325 150.476133
53 1 2 0.0 13.931917 19.418279 154.512176
54 1 2 0.0 14.573203 23.532682 148.661919
55 1 2 0.0 10.743550 20.859308 149.426615
56 1 2 0.0 15.390644 20.734239 150.830695
57 1 2 0.0 16.287458 22.864961 151.618376
58 1 2 0.0 16.619500 18.519865 153.715719
59 1 2 0.0 13.080120 23.336493 150.835619
60 1 2 0.0 10.098351 23.779570 148.760454
61 1 1 0.0 14.540984 13.620611 155.070834
62 1 1 0.0 11.005141 19.056438 150.038148
63 1 1 0.0 15.627334 13.745178 151.779552
64 1 1 0.0 14.499186 17.457126 150.292204
65 1 2 0.0 12.909623 14.245718 154.441090
66 1 2 0.0 14.509646 18.358815 148.453038
67 1 2 0.0 10.671142 15.604284 149.374716
68 1 2 0.0 14.832168 15.571385 150.705142
69 1 2 0.0 15.733447 17.696567 151.389345
70 1 2 0.0 15.494520 13.430713 153.624678
71 1 2 0.0 12.806914 18.102688 150.665277
72 1 2 0.0 10.297280 18.526711 148.625095
73 1 1 0.0 13.052747 8.585996 155.151236
74 1 1 0.0 10.746868 13.803697 150.035146
75 1 1 0.0 14.465267 8.692394 151.895223
76 1 1 0.0 13.848938 12.303168 150.305943
77 1 2 0.0 11.667874 9.121066 154.522846
78 1 2 0.0 14.134745 13.207292 148.456555
79 1 2 0.0 10.358564 10.356057 149.486306
80 1 2 0.0 13.984222 10.450297 150.778597
81 1 2 0.0 14.885416 12.579123 151.363360
82 1 2 0.0 14.100769 8.408255 153.722067
83 1 2 0.0 12.275763 12.894748 150.671333
84 1 2 0.0 10.253465 13.273851 148.654908
85 1 1 0.0 11.319084 3.617960 155.404673
86 1 1 0.0 10.250645 8.562855 150.194257
87 1 1 0.0 12.998444 3.699251 152.222198
88 1 1 0.0 12.908874 7.184631 150.518353
89 1 2 0.0 10.197982 4.046219 154.763498
90 1 2 0.0 13.448124 8.078141 148.672725
91 1 2 0.0 9.793571 5.114973 149.769718
92 1 2 0.0 12.838958 5.372105 151.056454
93 1 2 0.0 13.746110 7.512153 151.538525
94 1 2 0.0 12.427975 3.455039 154.015087
95 1 2 0.0 11.486020 7.712736 150.854228
96 1 2 0.0 9.963707 8.020991 148.852072
97 1 1 0.0 11.565941 19.964730 2.522980
98 1 1 0.0 6.699734 24.672538 153.154952
99 1 1 0.0 12.186648 19.812448 154.870068
100 1 1 0.0 10.561656 23.337791 153.437122
101 1 2 0.0 9.640067 20.437323 1.881419
102 1 2 0.0 10.254475 24.030069 151.617260
103 1 2 0.0 6.323223 21.058662 152.437033
104 1 2 0.0 11.062325 21.492496 153.819368
105 1 2 0.0 12.064985 23.792066 154.557053
106 1 2 0.0 12.366545 19.685925 1.083709
107 1 2 0.0 8.770249 23.914944 153.792882
108 1 2 0.0 5.730507 23.900395 151.732528
109 1 1 0.0 10.237849 14.789792 2.473215
110 1 1 0.0 6.567844 19.324502 153.062821
111 1 1 0.0 11.249822 14.593291 154.813587
112 1 1 0.0 10.088516 18.046091 153.319869
113 1 2 0.0 8.552515 15.193970 1.843440
114 1 2 0.0 10.078414 18.737908 151.478973
115 1 2 0.0 6.215014 15.713905 152.407758
116 1 2 0.0 10.421757 16.223132 153.738752
117 1 2 0.0 11.372868 18.527737 154.409470
118 1 2 0.0 11.166187 14.502871 1.027061
119 1 2 0.0 8.385830 18.592451 153.691816
120 1 2 0.0 5.843392 18.555889 151.655715
121 1 1 0.0 8.773712 9.651761 2.519366
122 1 1 0.0 6.303181 13.983106 153.061148
123 1 1 0.0 10.123294 9.411260 154.888635
124 1 1 0.0 9.431553 12.776857 153.328628
125 1 2 0.0 7.347719 9.976214 1.887119
126 1 2 0.0 9.696233 13.460540 151.481301
127 1 2 0.0 5.971329 10.372982 152.470704
128 1 2 0.0 9.595324 10.980584 153.785916
129 1 2 0.0 10.491290 13.296240 154.392726
130 1 2 0.0 9.798591 9.361315 1.087659
131 1 2 0.0 7.848369 13.285304 153.695409
132 1 2 0.0 5.818529 13.211383 151.672633
133 1 1 0.0 7.168700 4.551947 2.664840
134 1 1 0.0 5.905924 8.648341 153.149811
135 1 1 0.0 8.799038 4.267924 155.100779
136 1 1 0.0 8.589835 7.530203 153.464037
137 1 2 0.0 6.021036 4.785066 2.015689
138 1 2 0.0 9.107681 8.197983 151.624414
139 1 2 0.0 5.585261 5.036088 152.630572
140 1 2 0.0 8.577985 5.765581 153.964327
141 1 2 0.0 9.422021 8.097267 154.505599
142 1 2 0.0 8.257367 4.262844 1.269985
143 1 2 0.0 7.157482 7.993541 153.803923
144 1 2 0.0 5.654100 7.866877 151.784518
145 1 1 0.0 7.326026 21.159644 5.520243
146 1 1 0.0 2.370457 24.946645 0.474605
147 1 1 0.0 7.866934 20.721954 2.241714
148 1 1 0.0 6.253194 23.955319 0.766295
149 1 2 0.0 5.337759 21.408467 4.882477
150 1 2 0.0 5.930156 24.449548 154.572600
151 1 2 0.0 1.901714 21.216255 155.447451
152 1 2 0.0 6.725582 22.192373 1.176225
153 1 2 0.0 7.827973 24.635261 1.863913
154 1 2 0.0 8.101321 20.802540 4.083516
155 1 2 0.0 4.452866 24.418481 1.118329
156 1 2 0.0 1.362662 23.953871 154.704601
157 1 1 0.0 5.934462 15.958049 5.507411
158 1 1 0.0 2.129227 19.566151 0.455679
159 1 1 0.0 6.873015 15.445009 2.215805
160 1 1 0.0 5.675129 18.612829 0.715718
161 1 2 0.0 4.195783 16.143945 4.877607
162 1 2 0.0 5.645361 19.091618 154.504908
163 1 2 0.0 1.759148 15.832794 155.440800
164 1 2 0.0 6.010377 16.868153 1.140545
165 1 2 0.0 7.006668 19.326471 1.797779
166 1 2 0.0 6.838062 15.575871 4.061260
167 1 2 0.0 3.962361 19.058425 1.086539
168 1 2 0.0 1.389505 18.568803 154.686336
169 1 1 0.0 4.507819 10.765970 5.519312
170 1 1 0.0 1.860721 14.187022 0.455335
171 1 1 0.0 5.792078 10.185093 2.250231
172 1 1 0.0 5.017771 13.280029 0.719496
173 1 2 0.0 3.038772 10.882706 4.883208
174 1 2 0.0 5.259668 13.740929 154.506047
175 1 2 0.0 1.585801 10.450205 155.455102
176 1 2 0.0 5.212908 11.555803 1.161420
177 1 2 0.0 6.100462 14.032392 1.790276
178 1 2 0.0 5.509100 10.365505 4.085068
179 1 2 0.0 3.423716 13.703197 1.087669
180 1 2 0.0 1.383593 13.183735 154.690359
181 1 1 0.0 3.044850 5.583745 5.556823
182 1 1 0.0 1.564976 8.809255 0.473549
183 1 1 0.0 4.620441 4.942928 2.347544
184 1 1 0.0 4.280720 7.956970 0.777905
185 1 2 0.0 1.866131 5.624879 4.899695
186 1 2 0.0 4.772956 8.397491 154.576102
187 1 2 0.0 1.380102 5.068531 155.491426
188 1 2 0.0 4.330947 6.255644 1.240383
189 1 2 0.0 5.110149 8.752889 1.840856
190 1 2 0.0 4.111925 5.172067 4.156698
191 1 2 0.0 2.836811 8.352807 1.121802
192 1 2 0.0 1.344493 7.798667 154.716964
193 1 1 0.0 3.072789 22.305454 8.517507
194 1 1 0.0 -1.962607 25.145052 3.426075
195 1 1 0.0 3.538225 21.585502 5.245176
196 1 1 0.0 1.936014 24.501510 3.727284
197 1 2 0.0 1.025183 22.332574 7.883535
198 1 2 0.0 1.600473 24.794304 1.896125
199 1 2 0.0 -2.520951 21.333010 2.826054
200 1 2 0.0 2.380721 22.835982 4.164898
201 1 2 0.0 3.576953 25.397626 4.802590
202 1 2 0.0 3.824220 21.871292 7.083322
203 1 2 0.0 0.128172 24.849108 4.075592
204 1 2 0.0 -3.005183 23.941524 2.044858
205 1 1 0.0 1.630831 17.125403 8.541608
206 1 1 0.0 -2.310684 19.781945 3.480352
207 1 1 0.0 2.496887 16.300195 5.249840
208 1 1 0.0 1.259120 19.158122 3.743383
209 1 2 0.0 -0.160579 17.095611 7.911773
210 1 2 0.0 1.210560 19.420983 1.899027
211 1 2 0.0 -2.696461 15.960746 2.842025
212 1 2 0.0 1.598061 17.506694 4.174154
213 1 2 0.0 2.635053 20.093958 4.817905
214 1 2 0.0 2.510140 16.649685 7.095459
215 1 2 0.0 -0.463430 19.501248 4.113078
216 1 2 0.0 -3.064382 18.565821 2.085140
217 1 1 0.0 0.254758 11.927478 8.519257
218 1 1 0.0 -2.580540 14.414926 3.481338
219 1 1 0.0 1.471214 11.011822 5.243643
220 1 1 0.0 0.607466 13.811649 3.742180
221 1 2 0.0 -1.259167 11.839616 7.879297
222 1 2 0.0 0.824972 14.047352 1.898978
223 1 2 0.0 -2.798058 10.586391 2.807684
224 1 2 0.0 0.836741 12.174328 4.168739
225 1 2 0.0 1.712812 14.786882 4.819642
226 1 2 0.0 1.231891 11.419187 7.082476
227 1 2 0.0 -0.998269 14.147695 4.111745
228 1 2 0.0 -3.051343 13.190119 2.076268
229 1 1 0.0 -1.053092 6.711045 8.448806
230 1 1 0.0 -2.772280 9.044001 3.429103
231 1 1 0.0 0.461868 5.720254 5.226126
232 1 1 0.0 -0.018821 8.462076 3.723588
233 1 2 0.0 -2.267129 6.563838 7.783702
234 1 2 0.0 0.443714 8.673410 1.895975
235 1 2 0.0 -2.821976 5.209837 2.720464
236 1 2 0.0 0.097341 6.838800 4.148255
237 1 2 0.0 0.810048 9.476432 4.807930
238 1 2 0.0 -0.009157 6.179458 7.043412
239 1 2 0.0 -1.476203 8.788436 4.071497
240 1 2 0.0 -2.965114 7.814416 2.017594
241 1 1 0.0 -1.193825 23.401949 11.514771
242 1 1 0.0 -6.299482 25.267246 6.377545
243 1 1 0.0 -0.799391 22.403536 8.248639
244 1 1 0.0 -2.389822 24.976878 6.688273
245 1 2 0.0 -3.297764 23.209176 10.884593
246 1 2 0.0 -2.734503 25.065292 4.851465
247 1 2 0.0 -6.944779 21.408691 5.836472
248 1 2 0.0 -1.972192 23.423785 7.153572
249 1 2 0.0 -0.687951 26.079865 7.741267
250 1 2 0.0 -0.464709 22.892380 10.083129
251 1 2 0.0 -4.203840 25.206743 7.032856
252 1 2 0.0 -7.373027 23.863005 5.016932
253 1 1 0.0 -2.673046 18.291850 11.575805
254 1 1 0.0 -6.751896 19.971708 6.505025
255 1 1 0.0 -1.878568 17.158815 8.283875
256 1 1 0.0 -3.159490 19.682124 6.771048
257 1 2 0.0 -4.516569 18.048984 10.945940
258 1 2 0.0 -3.225966 19.726314 4.924961
259 1 2 0.0 -7.151812 16.097813 5.875067
260 1 2 0.0 -2.815182 18.138808 7.207764
261 1 2 0.0 -1.741929 20.830470 7.838030
262 1 2 0.0 -1.817581 17.724312 10.129659
263 1 2 0.0 -4.891545 19.920891 7.139617
264 1 2 0.0 -7.518269 18.546860 5.115760
265 1 1 0.0 -3.985418 13.136487 11.519203
266 1 1 0.0 -7.020593 14.666982 6.507340
267 1 1 0.0 -2.839398 11.890933 8.237055
268 1 1 0.0 -3.799387 14.371511 6.764865
269 1 2 0.0 -5.545990 12.847447 10.875385
270 1 2 0.0 -3.607880 14.379473 4.923724
271 1 2 0.0 -7.180239 10.781881 5.792082
272 1 2 0.0 -3.533229 12.835804 7.176059
273 1 2 0.0 -2.671687 15.559550 7.849008
274 1 2 0.0 -3.033088 12.522157 10.079884
275 1 2 0.0 -5.417584 14.618829 7.135821
276 1 2 0.0 -7.486280 13.230714 5.093993
277 1 1 0.0 -5.125015 7.934254 11.340789
278 1 1 0.0 -7.105819 9.353081 6.384657
279 1 1 0.0 -3.676873 6.598910 8.104707
280 1 1 0.0 -4.308857 9.044956 6.669272
281 1 2 0.0 -6.378529 7.602928 10.667709
282 1 2 0.0 -3.880114 9.024761 4.847663
283 1 2 0.0 -7.020956 5.460636 5.581319
284 1 2 0.0 -4.122944 7.514284 7.056127
285 1 2 0.0 -3.478386 10.267305 7.775003
286 1 2 0.0 -4.105980 7.284614 9.930125
287 1 2 0.0 -5.781551 9.300516 7.021192
288 1 2 0.0 -7.274721 7.914568 4.950039
289 1 1 0.0 -5.474263 24.447489 14.512035
290 1 1 0.0 -10.640305 25.310486 9.329014
291 1 1 0.0 -5.146078 23.175215 11.252101
292 1 1 0.0 -6.724496 25.379929 9.649262
293 1 2 0.0 -7.631489 24.036406 13.885652
294 1 2 0.0 -7.074855 25.261384 7.806806
295 1 2 0.0 -11.369809 21.441867 8.846891
296 1 2 0.0 -6.333319 23.954661 10.142245
297 1 2 0.0 -4.967012 26.680411 10.679944
298 1 2 0.0 -4.765753 23.864642 13.082935
299 1 2 0.0 -8.543391 25.489200 9.990119
300 1 2 0.0 -11.740872 23.716044 7.989005
301 1 1 0.0 -6.977177 19.457360 14.610001
302 1 1 0.0 -11.194458 20.134504 9.529699
303 1 1 0.0 -6.253339 18.020934 11.317910
304 1 1 0.0 -7.580757 20.184388 9.798713
305 1 2 0.0 -8.872171 19.004132 13.980106
306 1 2 0.0 -7.664243 20.007243 7.950896
307 1 2 0.0 -11.606897 16.244314 8.908109
308 1 2 0.0 -7.229371 18.764364 10.241373
309 1 2 0.0 -6.124384 21.535403 10.858155
310 1 2 0.0 -6.145096 18.799770 13.163858
311 1 2 0.0 -9.322054 20.316662 10.166156
312 1 2 0.0 -11.972156 18.511369 8.146381
313 1 1 0.0 -8.212278 14.394579 14.519149
314 1 1 0.0 -11.459395 14.944058 9.533343
315 1 1 0.0 -7.139570 12.823397 11.230467
316 1 1 0.0 -8.202716 14.960210 9.787549
317 1 2 0.0 -9.821259 13.908200 13.871474
318 1 2 0.0 -8.038860 14.737688 7.948470
319 1 2 0.0 -11.560684 11.038743 8.776480
320 1 2 0.0 -7.896878 13.541092 10.183378
321 1 2 0.0 -7.052976 16.350751 10.878374
322 1 2 0.0 -7.285539 13.675616 13.077293
323 1 2 0.0 -9.834148 15.117396 10.159897
324 1 2 0.0 -11.921216 13.306695 8.111719
325 1 1 0.0 -9.170054 9.256564 14.232772
326 1 1 0.0 -11.435506 9.739168 9.340211
327 1 1 0.0 -7.795417 7.580773 10.983288
328 1 1 0.0 -8.589186 9.707252 9.614956
329 1 2 0.0 -10.467209 8.746090 13.551715
330 1 2 0.0 -8.198446 9.452700 7.799352
331 1 2 0.0 -11.216729 5.824747 8.442173
332 1 2 0.0 -8.329641 8.283950 9.963999
333 1 2 0.0 -7.754924 11.126824 10.742076
334 1 2 0.0 -8.177952 8.489916 12.816839
335 1 2 0.0 -10.079004 9.891333 9.970887
336 1 2 0.0 -11.584328 8.102021 7.882485
337 1 1 0.0 -9.769425 25.438755 17.509299
338 1 1 0.0 -14.985346 25.269389 12.280484
339 1 1 0.0 -9.502280 23.898280 14.255563
340 1 1 0.0 -11.068465 25.706937 12.610251
341 1 2 0.0 -11.976770 24.810703 16.886710
342 1 2 0.0 -11.420825 25.379195 10.762146
343 1 2 0.0 -15.796122 21.429690 11.857309
344 1 2 0.0 -10.703072 24.425743 13.130918
345 1 2 0.0 -9.260934 27.195192 13.618621
346 1 2 0.0 -9.079581 24.785385 16.082741
347 1 2 0.0 -12.890943 25.691865 12.947382
348 1 2 0.0 -16.108717 23.496098 10.961078
349 1 1 0.0 -11.281579 20.621873 17.644198
350 1 1 0.0 -15.638459 20.268494 12.554372
351 1 1 0.0 -10.627392 18.886722 14.351945
352 1 1 0.0 -12.004818 20.663791 12.826378
353 1 2 0.0 -13.227358 19.961183 17.014273
354 1 2 0.0 -12.104351 20.262667 10.976831
355 1 2 0.0 -16.061696 16.400879 11.941151
356 1 2 0.0 -11.644554 19.383033 13.274983
357 1 2 0.0 -10.512584 22.207182 13.878280
358 1 2 0.0 -10.472392 19.876105 16.198057
359 1 2 0.0 -13.755104 20.687096 13.192695
360 1 2 0.0 -16.426044 18.458254 11.177001
361 1 1 0.0 -12.424956 15.704949 17.519095
362 1 1 0.0 -15.896860 15.247860 12.559345
363 1 1 0.0 -11.428791 13.811812 14.223879
364 1 1 0.0 -12.602339 15.579234 12.810234
365 1 2 0.0 -14.084142 15.025692 16.867563
366 1 2 0.0 -12.467882 15.123174 10.973216
367 1 2 0.0 -15.939275 11.361088 11.760878
368 1 2 0.0 -12.253887 14.292401 13.190698
369 1 2 0.0 -11.430892 17.161408 13.907740
370 1 2 0.0 -11.524770 14.882349 16.074701
371 1 2 0.0 -14.247792 15.645080 13.183973
372 1 2 0.0 -16.356152 13.420410 11.129444
373 1 1 0.0 -13.186457 10.684428 17.124755
374 1 1 0.0 -15.761080 10.207512 12.295765
375 1 1 0.0 -11.892779 8.670870 13.861869
376 1 1 0.0 -12.859310 10.453055 12.560640
377 1 2 0.0 -14.531532 10.000825 16.435722
378 1 2 0.0 -12.511032 9.960687 10.751040
379 1 2 0.0 -15.409081 6.309757 11.303027
380 1 2 0.0 -12.522063 9.152546 12.871872
381 1 2 0.0 -12.018974 12.058410 13.709150
382 1 2 0.0 -12.223703 9.800888 15.703552
383 1 2 0.0 -14.368077 10.565722 12.920582
384 1 2 0.0 -15.893935 8.382566 10.814931
385 1 1 0.0 -14.080820 26.370182 20.506563
386 1 1 0.0 -19.335053 25.134996 15.231954
387 1 1 0.0 -13.868784 24.568700 17.259025
388 1 1 0.0 -15.422529 25.951339 15.571240
389 1 2 0.0 -16.334890 25.526192 19.887768
390 1 2 0.0 -15.772856 25.412554 13.717487
391 1 2 0.0 -20.223854 21.367410 14.867727
392 1 2 0.0 -15.082186 24.831950 16.119592
393 1 2 0.0 -13.570971 27.616984 16.557297
394 1 2 0.0 -13.407351 25.649945 19.082548
395 1 2 0.0 -17.247279 25.806921 15.904645
396 1 2 0.0 -20.476562 23.195578 13.933151
397 1 1 0.0 -15.586280 21.785286 20.678395
398 1 1 0.0 -20.084055 20.370619 15.579046
399 1 1 0.0 -15.000667 19.756483 17.385980
400 1 1 0.0 -16.431914 21.118362 15.854043
401 1 2 0.0 -17.582083 20.920348 20.048439
402 1 2 0.0 -16.546433 20.490577 14.002765
403 1 2 0.0 -20.516181 16.568563 14.974192
404 1 2 0.0 -16.060815 19.994230 16.308592
405 1 2 0.0 -14.907013 22.843014 16.898405
406 1 2 0.0 -14.799452 20.953397 19.232256
407 1 2 0.0 -18.190943 21.029710 16.219234
408 1 2 0.0 -20.879931 18.385680 14.207621
409 1 1 0.0 -16.621997 17.072958 20.519040
410 1 1 0.0 -20.332846 15.581226 15.585348
411 1 1 0.0 -15.706155 14.860819 17.217291
412 1 1 0.0 -16.997936 16.231198 15.832918
413 1 2 0.0 -18.333263 16.206219 19.863651
414 1 2 0.0 -16.894792 15.538083 13.997963
415 1 2 0.0 -20.315820 11.755774 14.745276
416 1 2 0.0 -16.603692 15.093639 16.198017
417 1 2 0.0 -15.805153 17.993161 16.937106
418 1 2 0.0 -15.749585 16.147178 19.072109
419 1 2 0.0 -18.658230 16.204732 16.208049
420 1 2 0.0 -20.791088 13.575783 14.147169
421 1 1 0.0 -17.171290 12.228670 20.016738
422 1 1 0.0 -20.082103 10.766851 15.251319
423 1 1 0.0 -15.967203 9.878177 16.740451
424 1 1 0.0 -17.118347 11.289571 15.506323
425 1 2 0.0 -18.568793 11.379517 19.319729
426 1 2 0.0 -16.817420 10.555034 13.702729
427 1 2 0.0 -19.597653 6.928331 14.163881
428 1 2 0.0 -16.699000 10.128473 15.779744
429 1 2 0.0 -16.269484 13.068135 16.676223
430 1 2 0.0 -16.240859 11.227097 18.590266
431 1 2 0.0 -18.647949 11.331868 15.870277
432 1 2 0.0 -20.203542 8.765886 13.747377
433 1 1 0.0 24.112826 11.056018 3.627032
434 1 1 0.0 21.473268 18.575893 154.350592
435 1 1 0.0 24.994017 11.239891 0.329908
436 1 1 0.0 24.553593 15.570106 154.613724
437 1 2 0.0 22.656851 12.452288 2.977882
438 1 2 0.0 24.603526 16.676770 152.805159
439 1 2 0.0 20.371901 15.489004 153.514776
440 1 2 0.0 24.535188 13.529773 154.940601
441 1 2 0.0 25.834449 15.163644 0.146463
442 1 2 0.0 24.899288 10.699032 2.182677
443 1 2 0.0 23.083888 16.840266 154.976936
444 1 2 0.0 20.543932 18.536470 152.886961
445 1 1 0.0 21.594775 6.615921 3.503401
446 1 1 0.0 20.114485 13.630590 154.112054
447 1 1 0.0 22.836478 6.719622 0.212281
448 1 1 0.0 22.897372 10.812827 154.363119
449 1 2 0.0 20.322292 7.875825 2.873687
450 1 2 0.0 23.241242 11.866610 152.525684
451 1 2 0.0 18.893325 10.595853 153.440254
452 1 2 0.0 22.672190 8.865081 154.770113
453 1 2 0.0 24.026375 10.465793 155.467800
454 1 2 0.0 22.508334 6.251827 2.057243
455 1 2 0.0 21.494596 12.001165 154.737318
456 1 2 0.0 19.373537 13.556840 152.693055
457 1 1 0.0 18.778452 2.359310 3.618054
458 1 1 0.0 18.430815 8.798954 154.107723
459 1 1 0.0 20.321841 2.385193 0.368575
460 1 1 0.0 20.877864 6.212667 154.381839
461 1 2 0.0 17.699039 3.457648 2.993522
462 1 2 0.0 21.487832 7.202881 152.530389
463 1 2 0.0 17.086709 5.809549 153.600488
464 1 2 0.0 20.448182 4.365903 154.869857
465 1 2 0.0 21.855499 5.946865 155.432574
466 1 2 0.0 19.788152 1.997439 2.191423
467 1 2 0.0 19.567539 7.299533 154.745837
468 1 2 0.0 17.869588 8.675507 152.735763
469 1 1 0.0 15.653266 -1.707301 3.979454
470 1 1 0.0 16.422696 4.080831 154.337283
471 1 1 0.0 17.434994 -1.755532 0.810380
472 1 1 0.0 18.493227 1.770422 154.671250
473 1 2 0.0 14.775662 -0.795977 3.346255
474 1 2 0.0 19.342823 2.685762 152.819617
475 1 2 0.0 14.935329 1.135538 154.007444
476 1 2 0.0 17.853376 0.036725 155.247162
477 1 2 0.0 19.325213 1.605188 0.038216
478 1 2 0.0 16.726160 -2.056762 2.595138
479 1 2 0.0 17.301872 2.735714 155.003113
480 1 2 0.0 16.027687 3.893768 153.018206
481 1 1 0.0 20.439720 13.491937 6.624296
482 1 1 0.0 17.450518 20.212593 1.670246
483 1 1 0.0 21.154126 13.422832 3.333370
484 1 1 0.0 20.656585 17.521794 1.942897
485 1 2 0.0 18.852820 14.688058 5.978940
486 1 2 0.0 20.631002 18.453378 0.128683
487 1 2 0.0 16.201838 16.971595 0.893379
488 1 2 0.0 20.624046 15.537997 2.297459
489 1 2 0.0 22.086590 17.328308 3.085140
490 1 2 0.0 21.176828 13.066566 5.182483
491 1 2 0.0 19.143356 18.687252 2.302383
492 1 2 0.0 16.408447 19.955138 0.227218
493 1 1 0.0 17.798174 8.954679 6.537598
494 1 1 0.0 15.943128 15.168310 1.504912
495 1 1 0.0 18.875429 8.767079 3.246316
496 1 1 0.0 18.842578 12.646536 1.758968
497 1 2 0.0 16.410051 10.015440 5.907854
498 1 2 0.0 19.107499 13.508493 155.551618
499 1 2 0.0 14.646904 11.951366 0.841480
500 1 2 0.0 18.628922 10.743580 2.171906
501 1 2 0.0 20.094185 12.527314 2.856109
502 1 2 0.0 18.659140 8.502983 5.091442
503 1 2 0.0 17.401812 13.744137 2.132041
504 1 2 0.0 15.114395 14.860284 0.091859
505 1 1 0.0 14.947461 4.546093 6.618000
506 1 1 0.0 14.210555 10.202810 1.501910
507 1 1 0.0 16.332447 4.248863 3.361987
508 1 1 0.0 16.761941 7.886594 1.772707
509 1 2 0.0 13.770321 5.450813 5.989610
510 1 2 0.0 17.291667 8.673052 155.555135
511 1 2 0.0 12.863516 7.005548 0.953070
512 1 2 0.0 16.367941 6.071050 2.245361
513 1 2 0.0 17.834152 7.858305 2.830124
514 1 2 0.0 15.902495 4.079348 5.188831
515 1 2 0.0 15.420155 8.898748 2.138097
516 1 2 0.0 13.587501 9.834048 0.121672
517 1 1 0.0 11.880151 0.270747 6.871437
518 1 1 0.0 12.253101 5.315988 1.661021
519 1 1 0.0 13.513998 -0.125995 3.688962
520 1 1 0.0 14.413321 3.242553 1.985117
521 1 2 0.0 10.925833 0.998450 6.230262
522 1 2 0.0 15.183153 3.947187 0.139489
523 1 2 0.0 10.840029 2.137932 1.236482
524 1 2 0.0 13.833895 1.523714 2.523218
525 1 2 0.0 15.308993 3.320049 3.005289
526 1 2 0.0 12.897762 -0.198988 5.481851
527 1 2 0.0 13.197782 4.151328 2.320992
528 1 2 0.0 11.824693 4.877335 0.318836
529 1 1 0.0 16.737810 15.881032 9.621560
530 1 1 0.0 13.400865 21.772399 4.621716
531 1 1 0.0 17.290155 15.559500 6.336832
532 1 1 0.0 16.727975 19.400411 4.903886
533 1 2 0.0 15.024074 16.878752 8.979999
534 1 2 0.0 16.629013 20.151287 3.084024
535 1 2 0.0 12.018147 18.412348 3.903797
536 1 2 0.0 16.686599 17.488848 5.286132
537 1 2 0.0 18.298404 19.411200 6.023817
538 1 2 0.0 17.426950 15.387284 8.182289
539 1 2 0.0 15.172778 20.460415 5.259646
540 1 2 0.0 12.252900 21.305728 3.199292
541 1 1 0.0 14.001044 11.292576 9.571795
542 1 1 0.0 11.762583 16.679766 4.529585
543 1 1 0.0 14.916197 10.818027 6.280351
544 1 1 0.0 14.778285 14.458279 4.786633
545 1 2 0.0 12.498699 12.156676 8.942020
546 1 2 0.0 14.964157 15.124736 2.945737
547 1 2 0.0 10.403507 13.316165 3.874522
548 1 2 0.0 14.582625 12.615470 5.205516
549 1 2 0.0 16.146405 14.557224 5.876234
550 1 2 0.0 14.810413 10.754936 8.125641
551 1 2 0.0 13.299487 15.463668 5.158580
552 1 2 0.0 10.850408 16.147288 3.122479
553 1 1 0.0 11.144215 6.777979 9.617946
554 1 1 0.0 9.998820 11.631034 4.527912
555 1 1 0.0 12.370769 6.165790 6.355399
556 1 1 0.0 12.658621 9.589660 4.795392
557 1 2 0.0 9.868096 7.492295 8.985699
558 1 2 0.0 13.105767 10.170640 2.948065
559 1 2 0.0 8.660000 8.261956 3.937468
560 1 2 0.0 12.307945 7.820354 5.252680
561 1 2 0.0 13.821954 9.788296 5.859490
562 1 2 0.0 12.045191 6.209669 8.186239
563 1 2 0.0 11.283734 10.524902 5.162173
564 1 2 0.0 9.315785 11.027786 3.139397
565 1 1 0.0 8.163058 2.339862 9.763420
566 1 1 0.0 8.109745 6.626144 4.616575
567 1 1 0.0 9.646616 1.606564 6.567543
568 1 1 0.0 10.368120 4.794926 4.930801
569 1 2 0.0 7.128099 2.887893 9.114269
570 1 2 0.0 11.053612 5.289087 3.091178
571 1 2 0.0 6.781057 3.251861 4.097336
572 1 2 0.0 9.857933 3.105625 5.431091
573 1 2 0.0 11.326661 5.103623 5.972363
574 1 2 0.0 9.125601 1.754809 8.368565
575 1 2 0.0 9.125161 5.644262 5.270687
576 1 2 0.0 7.647289 5.947737 3.251282
577 1 1 0.0 13.008596 18.225741 12.618823
578 1 1 0.0 9.325641 23.259118 7.573185
579 1 1 0.0 13.403717 17.652999 9.340294
580 1 1 0.0 12.769795 21.210660 7.864875
581 1 2 0.0 11.171758 19.026454 11.981057
582 1 2 0.0 12.599639 21.776047 6.039364
583 1 2 0.0 7.821517 19.813375 6.914215
584 1 2 0.0 12.724571 19.386082 8.274805
585 1 2 0.0 14.472551 21.417715 8.962493
586 1 2 0.0 13.651325 17.664042 11.182096
587 1 2 0.0 11.173819 22.163844 8.216909
588 1 2 0.0 8.078315 22.591716 6.171365
589 1 1 0.0 10.203412 13.629657 12.605991
590 1 1 0.0 7.573304 18.166259 7.554259
591 1 1 0.0 10.958660 12.872233 9.314385
592 1 1 0.0 10.705102 16.249470 7.814298
593 1 2 0.0 8.588194 14.299458 11.976187
594 1 2 0.0 10.811892 16.717146 5.971672
595 1 2 0.0 6.162982 14.689780 6.907564
596 1 2 0.0 10.533496 14.481184 8.239125
597 1 2 0.0 12.184065 16.557609 8.896359
598 1 2 0.0 10.962125 13.007639 11.159840
599 1 2 0.0 9.188150 17.161054 8.185119
600 1 2 0.0 6.581823 17.418690 6.153100
601 1 1 0.0 7.367269 9.052618 12.617892
602 1 1 0.0 5.795188 13.082418 7.553915
603 1 1 0.0 8.434948 8.132401 9.348811
604 1 1 0.0 8.567091 11.319989 7.818076
605 1 2 0.0 5.991136 9.579860 11.981788
606 1 2 0.0 8.929408 11.693713 5.972811
607 1 2 0.0 4.475166 9.575721 6.921866
608 1 2 0.0 8.266869 9.610925 8.260000
609 1 2 0.0 9.818301 11.735614 8.888856
610 1 2 0.0 8.214510 8.385447 11.183648
611 1 2 0.0 7.157670 12.176502 8.186249
612 1 2 0.0 5.053913 12.254924 6.157123
613 1 1 0.0 4.499067 4.495300 12.655403
614 1 1 0.0 3.991329 8.007584 7.572129
615 1 1 0.0 5.829252 3.435234 9.446124
616 1 1 0.0 6.355389 6.422379 7.876485
617 1 2 0.0 3.380050 4.867954 11.998275
618 1 2 0.0 6.952075 6.705790 6.042866
619 1 2 0.0 2.756576 4.471686 6.958190
620 1 2 0.0 5.922641 4.776244 8.338963
621 1 2 0.0 7.375979 6.951375 8.939436
622 1 2 0.0 5.406248 3.798773 11.255278
623 1 2 0.0 5.082265 7.210234 8.220382
624 1 2 0.0 3.494168 7.100539 6.183728
625 1 1 0.0 9.252723 20.527115 15.616087
626 1 1 0.0 5.225388 24.674294 10.524655
627 1 1 0.0 9.495661 19.704957 12.343756
628 1 1 0.0 8.783088 22.954945 10.825864
629 1 2 0.0 7.296295 21.131941 14.982115
630 1 2 0.0 8.543998 23.330647 8.994705
631 1 2 0.0 3.612235 21.175558 9.924634
632 1 2 0.0 8.738849 21.231637 11.263478
633 1 2 0.0 10.610413 23.350656 11.901170
634 1 2 0.0 9.850779 19.898247 14.181902
635 1 2 0.0 7.147237 23.799404 11.174172
636 1 2 0.0 3.885123 23.814565 9.143438
637 1 1 0.0 6.405290 15.965942 15.640188
638 1 1 0.0 3.375475 19.628316 10.578932
639 1 1 0.0 7.002756 14.929575 12.348420
640 1 1 0.0 6.623344 18.020830 10.841963
641 1 2 0.0 4.678521 16.443757 15.010353
642 1 2 0.0 6.651069 18.286698 8.997607
643 1 2 0.0 1.925264 16.072015 9.940605
644 1 2 0.0 6.481639 16.340946 11.272734
645 1 2 0.0 8.207699 18.529553 11.916485
646 1 2 0.0 7.114261 15.261065 14.194039
647 1 2 0.0 5.068042 18.836889 11.211658
648 1 2 0.0 2.308746 18.674846 9.183720
649 1 1 0.0 3.616001 11.369000 15.617837
650 1 1 0.0 1.599488 14.556474 10.579918
651 1 1 0.0 4.524009 10.146824 12.342223
652 1 1 0.0 4.486938 13.076622 10.840760
653 1 2 0.0 2.138986 11.712675 14.977877
654 1 2 0.0 4.762200 13.241228 8.997558
655 1 2 0.0 0.308599 10.945573 9.906264
656 1 2 0.0 4.244028 11.441269 11.267319
657 1 2 0.0 5.822879 13.699624 11.918222
658 1 2 0.0 4.409599 10.605226 14.181056
659 1 2 0.0 3.041685 13.852868 11.210325
660 1 2 0.0 0.801660 13.514706 9.174848
661 1 1 0.0 0.886923 6.735020 15.547386
662 1 1 0.0 -0.102674 9.458803 10.527683
663 1 1 0.0 2.060020 5.356393 12.324706
664 1 1 0.0 2.373988 8.122270 10.822168
665 1 2 0.0 -0.319212 6.936998 14.882282
666 1 2 0.0 2.877398 8.194236 8.994555
667 1 2 0.0 -1.234176 5.795063 9.819044
668 1 2 0.0 2.026548 6.532363 11.246835
669 1 2 0.0 3.455788 8.860952 11.906510
670 1 2 0.0 1.738012 5.930017 14.141992
671 1 2 0.0 1.068301 8.847289 11.170077
672 1 2 0.0 -0.635219 8.333876 9.116174
673 1 1 0.0 5.470078 22.784966 18.613351
674 1 1 0.0 1.099934 26.017443 13.476125
675 1 1 0.0 5.566196 21.715776 15.347219
676 1 1 0.0 4.768057 24.633743 13.786853
677 1 2 0.0 3.397456 23.194793 17.983173
678 1 2 0.0 4.462427 24.815985 11.950045
679 1 2 0.0 -0.609772 22.498671 12.935052
680 1 2 0.0 4.729629 23.025938 14.252152
681 1 2 0.0 6.712307 25.210664 14.839847
682 1 2 0.0 6.025413 22.090075 17.181709
683 1 2 0.0 3.093002 25.367016 14.131436
684 1 2 0.0 -0.326775 24.973942 12.115512
685 1 1 0.0 2.606675 18.301426 18.674385
686 1 1 0.0 -0.830960 21.065772 13.603605
687 1 1 0.0 3.048466 16.990021 15.382455
688 1 1 0.0 2.533071 19.772505 13.869628
689 1 2 0.0 0.769688 18.589588 18.044520
690 1 2 0.0 2.481797 19.833683 12.023541
691 1 2 0.0 -2.309630 17.462921 12.973647
692 1 2 0.0 2.427074 18.194804 14.306344
693 1 2 0.0 4.217428 20.473302 14.936610
694 1 2 0.0 3.266819 17.515214 17.228239
695 1 2 0.0 0.939151 20.491147 14.238197
696 1 2 0.0 -1.968849 19.915672 12.214340
697 1 1 0.0 -0.109478 13.727304 18.617783
698 1 1 0.0 -2.588226 16.053354 13.605920
699 1 1 0.0 0.637710 12.208595 15.335635
700 1 1 0.0 0.418079 14.859370 13.863445
701 1 2 0.0 -1.688107 13.891191 17.973965
702 1 2 0.0 0.604026 14.812873 12.022304
703 1 2 0.0 -3.839594 12.371835 12.890662
704 1 2 0.0 0.239272 13.311060 14.274639
705 1 2 0.0 1.835618 15.680179 14.947588
706 1 2 0.0 0.630353 12.868827 17.178464
707 1 2 0.0 -1.064208 15.554030 14.234401
708 1 2 0.0 -3.440921 14.807304 12.192573
709 1 1 0.0 -2.673152 9.059383 18.439369
710 1 1 0.0 -4.172098 10.980273 13.483237
711 1 1 0.0 -1.661546 7.369144 15.203287
712 1 1 0.0 -1.576311 9.894075 13.767852
713 1 2 0.0 -3.969201 9.095911 17.766289
714 1 2 0.0 -1.170763 9.753507 11.946243
715 1 2 0.0 -5.191004 7.222592 12.679899
716 1 2 0.0 -1.830668 8.373278 14.154707
717 1 2 0.0 -0.434180 10.831814 14.873583
718 1 2 0.0 -1.879318 8.148180 17.028705
719 1 2 0.0 -2.916700 10.555510 14.119772
720 1 2 0.0 -4.740747 9.648174 12.048619
721 1 1 0.0 1.659769 24.997849 21.610615
722 1 1 0.0 -3.051625 27.285974 16.427594
723 1 1 0.0 1.614925 23.684694 18.350681
724 1 1 0.0 0.724107 26.245673 16.747842