
30228 atoms
88 bonds

4 atom types
1 bond types

-51.827299 51.829351 xlo xhi
-51.813937 51.820313 ylo yhi
0.000000 156.330589 zlo zhi

Masses

1 28.085500
2 15.999400
3 15.999400
4 1.008000

Atoms

1 1 1 0.0 30.472129 26.974435 146.987757
2 1 1 0.0 21.985795 35.250509 143.126138
3 1 1 0.0 30.268053 27.496245 143.799903
4 1 1 0.0 26.276601 32.051234 143.542242
5 1 2 0.0 28.582929 28.655302 146.112950
6 1 3 0.0 25.051036 33.105269 142.016909
7 1 2 0.0 23.731289 32.578817 140.818299
8 1 2 0.0 28.081905 30.006949 143.184530
9 1 2 0.0 27.261179 31.521125 145.266703
10 1 2 0.0 30.869025 26.718259 145.648645
11 1 2 0.0 24.524232 33.437205 143.773119
12 1 2 0.0 21.157800 35.351772 141.235120
13 1 1 0.0 32.028030 22.128678 145.102696
14 1 1 0.0 25.104980 30.784752 140.854580
15 1 1 0.0 32.318513 22.960995 141.837960
16 1 1 0.0 29.232145 27.562767 141.175499
17 1 2 0.0 30.221075 23.848076 144.326260
18 1 2 0.0 28.414066 28.847741 139.527044
19 1 2 0.0 26.141975 28.218377 139.094690
20 1 2 0.0 30.568266 25.524947 141.074528
21 1 2 0.0 30.311456 26.858872 142.679974
22 1 2 0.0 32.646467 22.006140 143.702587
23 1 2 0.0 27.457731 28.897552 141.478807
24 1 2 0.0 24.264186 31.068344 139.121399
25 1 1 0.0 32.655694 17.534736 143.872077
26 1 1 0.0 27.111875 26.374621 139.340820
27 1 1 0.0 33.375239 18.620221 140.565024
28 1 1 0.0 31.031320 23.215628 139.601455
29 1 2 0.0 30.962570 19.236599 143.164060
30 1 2 0.0 30.557784 24.677721 137.868987
31 1 2 0.0 27.648834 23.883515 137.986330
32 1 2 0.0 32.002383 21.194764 139.687933
33 1 2 0.0 32.115932 22.412499 140.953576
34 1 2 0.0 33.455951 17.534213 142.435146
35 1 2 0.0 29.269513 24.470376 139.951588
36 1 2 0.0 26.322929 26.784917 137.720540
37 1 1 0.0 32.535854 13.143578 143.168476
38 1 1 0.0 28.281328 22.006371 138.397603
39 1 1 0.0 33.623330 14.437701 139.852757
40 1 1 0.0 31.948278 18.976313 138.632177
41 1 2 0.0 30.977425 14.783755 142.507943
42 1 2 0.0 31.778557 20.573940 136.840557
43 1 2 0.0 28.410933 19.569729 137.384941
44 1 2 0.0 32.600614 16.985183 138.876001
45 1 2 0.0 32.998739 18.125841 139.863669
46 1 2 0.0 33.482658 13.256526 141.716493
47 1 2 0.0 30.229950 20.128565 139.006566
48 1 2 0.0 27.569730 22.501490 136.872161
49 1 1 0.0 31.750559 8.932947 142.934047
50 1 1 0.0 28.738802 17.673727 137.939454
51 1 1 0.0 33.146072 10.397133 139.643412
52 1 1 0.0 32.108650 14.829466 138.181544
53 1 2 0.0 30.342435 10.472779 142.304424
54 1 2 0.0 32.211912 16.526672 136.349300
55 1 2 0.0 28.498745 15.275024 137.242549
56 1 2 0.0 32.461910 12.881928 138.570704
57 1 2 0.0 33.106720 13.973450 139.308844
58 1 2 0.0 32.810386 9.152286 141.487881
59 1 2 0.0 30.462782 15.859711 138.559121
60 1 2 0.0 28.112828 18.218063 136.502613
61 1 1 0.0 30.324397 4.896173 143.151453
62 1 1 0.0 28.536017 13.374102 137.931136
63 1 1 0.0 31.965698 6.494169 139.921575
64 1 1 0.0 31.562545 10.768963 138.215206
65 1 2 0.0 29.079151 6.298966 142.538492
66 1 2 0.0 31.913029 12.531955 136.357570
67 1 2 0.0 27.927610 10.998966 137.548714
68 1 2 0.0 31.619325 8.880230 138.749319
69 1 2 0.0 32.502439 9.944485 139.245897
70 1 2 0.0 31.463206 5.215519 141.732434
71 1 2 0.0 30.018056 11.658798 138.575029
72 1 2 0.0 27.993211 13.934635 136.584007
73 1 1 0.0 28.234608 1.039428 143.836741
74 1 1 0.0 27.673864 9.107453 138.372041
75 1 1 0.0 30.052455 2.734629 140.707872
76 1 1 0.0 30.306380 6.795242 138.735619
77 1 2 0.0 27.162701 2.267746 143.227471
78 1 2 0.0 30.881026 8.589854 136.865971
79 1 2 0.0 26.663936 6.742506 138.326301
80 1 2 0.0 30.053774 4.982843 139.424966
81 1 2 0.0 31.192551 6.037793 139.670231
82 1 2 0.0 29.415326 1.452625 142.468233
83 1 2 0.0 28.894075 7.525994 139.055448
84 1 2 0.0 27.202135 9.651208 137.122289
85 1 1 0.0 25.401758 -2.615736 145.045915
86 1 1 0.0 26.102761 4.876259 139.295950
87 1 1 0.0 27.312309 -0.863083 142.067506
88 1 1 0.0 28.281443 2.915479 139.783031
89 1 2 0.0 24.511539 -1.603077 144.428155
90 1 2 0.0 29.058597 4.704481 137.913596
91 1 2 0.0 24.611126 2.508378 139.641066
92 1 2 0.0 27.686284 1.201160 140.651936
93 1 2 0.0 29.130476 2.261445 140.614015
94 1 2 0.0 26.580485 -2.114990 143.755755
95 1 2 0.0 27.036718 3.466726 140.037392
96 1 2 0.0 25.677619 5.367781 138.159637
97 1 1 0.0 21.650276 -6.021691 146.902760
98 1 1 0.0 23.700848 0.686613 140.785885
99 1 1 0.0 23.538926 -4.258587 144.143536
100 1 1 0.0 25.347602 -0.853200 141.453502
101 1 2 0.0 20.946277 -5.274343 146.265482
102 1 2 0.0 26.306636 0.885819 139.595342
103 1 2 0.0 21.558412 -1.697454 141.636482
104 1 2 0.0 24.339994 -2.439300 142.551823
105 1 2 0.0 26.196319 -1.363782 142.160044
106 1 2 0.0 22.768642 -5.440170 145.728233
107 1 2 0.0 24.315379 -0.505908 141.610175
108 1 2 0.0 23.275990 1.084354 139.793811
109 1 1 0.0 16.575426 -9.068640 149.692629
110 1 1 0.0 20.201671 -3.448158 143.023380
111 1 1 0.0 18.249022 -7.357302 147.271048
112 1 1 0.0 21.196920 -4.473158 143.958127
113 1 2 0.0 16.049507 -8.654927 149.030164
114 1 2 0.0 22.320447 -2.844263 142.119070
115 1 2 0.0 17.000592 -5.860694 144.656448
116 1 2 0.0 19.614087 -5.880708 145.400182
117 1 2 0.0 22.128847 -4.792620 144.488723
118 1 2 0.0 17.539023 -8.413540 148.694686
119 1 2 0.0 20.443695 -4.363197 143.969628
120 1 2 0.0 19.678692 -3.199074 142.241570
121 1 1 0.0 27.445253 29.263400 149.383318
122 1 1 0.0 18.840416 36.967502 145.322075
123 1 1 0.0 27.069251 29.722482 146.226925
124 1 1 0.0 23.226988 34.167907 145.776734
125 1 2 0.0 25.399517 30.710786 148.527552
126 1 2 0.0 21.941209 35.175914 144.228402
127 1 2 0.0 20.147785 34.008841 143.283223
128 1 2 0.0 24.889660 32.112831 145.539038
129 1 2 0.0 24.467492 33.866411 147.412213
130 1 2 0.0 27.798508 29.039705 148.056892
131 1 2 0.0 21.440478 35.373153 145.992400
132 1 2 0.0 17.805791 36.860544 143.515974
133 1 1 0.0 28.487636 24.191705 147.795236
134 1 1 0.0 21.409642 32.184087 143.413471
135 1 1 0.0 28.629720 24.875926 144.551503
136 1 1 0.0 25.624283 29.353983 143.760176
137 1 2 0.0 26.548841 25.667171 147.031517
138 1 2 0.0 24.750338 30.546059 142.096334
139 1 2 0.0 22.146336 29.312112 141.833462
140 1 2 0.0 26.867976 27.305769 143.739604
141 1 2 0.0 26.900274 28.909195 145.205216
142 1 2 0.0 29.066837 24.062400 146.403603
143 1 2 0.0 23.818379 30.524905 144.053305
144 1 2 0.0 20.420035 32.227733 141.737128
145 1 1 0.0 28.748021 19.332153 146.758493
146 1 1 0.0 23.044302 27.447410 142.141581
147 1 1 0.0 29.341578 20.195446 143.464467
148 1 1 0.0 27.036308 24.660477 142.419029
149 1 2 0.0 26.947378 20.787461 146.058382
150 1 2 0.0 26.515371 25.991138 140.676541
151 1 2 0.0 23.384663 24.636896 140.901199
152 1 2 0.0 27.948925 22.628180 142.557100
153 1 2 0.0 28.270138 24.136169 143.732254
154 1 2 0.0 29.512829 19.289151 145.326837
155 1 2 0.0 25.248231 25.771719 142.762538
156 1 2 0.0 22.152613 27.594922 140.558205
157 1 1 0.0 28.378665 14.643438 146.165740
158 1 1 0.0 23.975327 22.745922 141.349073
159 1 1 0.0 29.362895 15.650107 142.856219
160 1 1 0.0 27.696648 20.058840 141.593166
161 1 2 0.0 26.737484 16.040578 145.509001
162 1 2 0.0 27.490088 21.492938 139.795898
163 1 2 0.0 23.996557 19.979407 140.395359
164 1 2 0.0 28.317022 18.053442 141.864675
165 1 2 0.0 28.853633 19.499411 142.802345
166 1 2 0.0 29.293807 14.680921 144.716300
167 1 2 0.0 25.958549 21.090681 141.963829
168 1 2 0.0 23.201886 22.962111 139.844235
169 1 1 0.0 27.448693 10.106810 145.968244
170 1 1 0.0 24.308135 18.074350 140.964128
171 1 1 0.0 28.764792 11.225991 142.677447
172 1 1 0.0 27.712347 15.535989 141.209209
173 1 2 0.0 25.983461 11.412484 145.338590
174 1 2 0.0 27.790538 17.043129 139.375234
175 1 2 0.0 24.041296 15.337968 140.275591
176 1 2 0.0 28.056652 13.569381 141.604314
177 1 2 0.0 28.776049 14.977209 142.328969
178 1 2 0.0 28.480961 10.220044 144.522080
179 1 2 0.0 26.053914 16.471306 141.585660
180 1 2 0.0 23.658941 18.329300 139.533234
181 1 1 0.0 25.978819 5.716647 146.151399
182 1 1 0.0 24.086180 13.430523 140.957138
183 1 1 0.0 27.566256 6.919382 142.914987
184 1 1 0.0 27.126101 11.086708 141.237890
185 1 2 0.0 24.703354 6.899239 145.534580
186 1 2 0.0 27.463975 12.638320 139.382316
187 1 2 0.0 23.531782 10.712214 140.533112
188 1 2 0.0 27.196003 9.171928 141.756638
189 1 2 0.0 28.090762 10.560315 142.275263
190 1 2 0.0 27.094741 5.901445 144.729842
191 1 2 0.0 25.576623 11.909351 141.599105
192 1 2 0.0 23.558274 13.696489 139.601732
193 1 1 0.0 23.949868 1.478152 146.728724
194 1 1 0.0 23.310212 8.814401 141.327595
195 1 1 0.0 25.741880 2.735252 143.586454
196 1 1 0.0 25.934855 6.711368 141.681302
197 1 2 0.0 22.876337 2.505392 146.111478
198 1 2 0.0 26.509641 8.278565 139.817659
199 1 2 0.0 22.439760 6.102944 141.187155
200 1 2 0.0 25.718800 4.863432 142.332838
201 1 2 0.0 26.803451 6.247744 142.637305
202 1 2 0.0 25.113235 1.730562 145.354947
203 1 2 0.0 24.525244 7.404961 142.005143
204 1 2 0.0 22.892528 9.063678 140.054735
205 1 1 0.0 21.294920 -2.590520 147.747401
206 1 1 0.0 21.938572 4.228070 142.103881
207 1 1 0.0 23.211360 -1.310683 144.747527
208 1 1 0.0 24.088585 2.416084 142.573739
209 1 2 0.0 20.434129 -1.754153 147.116836
210 1 2 0.0 24.878466 3.967387 140.714740
211 1 2 0.0 20.683981 1.512457 142.293029
212 1 2 0.0 23.557695 0.653611 143.379213
213 1 2 0.0 24.874374 2.046383 143.442540
214 1 2 0.0 22.463160 -2.274421 146.448772
215 1 2 0.0 22.854033 2.962722 142.835058
216 1 2 0.0 21.609540 4.430867 140.927737
217 1 1 0.0 17.866065 -6.449245 149.311711
218 1 1 0.0 19.868869 -0.323351 143.355751
219 1 1 0.0 19.798498 -5.183940 146.520373
220 1 1 0.0 21.467894 -1.784553 143.997046
221 1 2 0.0 17.226526 -5.846604 148.655270
222 1 2 0.0 22.451334 -0.286667 142.154817
223 1 2 0.0 18.087164 -3.054229 143.971411
224 1 2 0.0 20.561858 -3.435774 144.999458
225 1 2 0.0 22.201238 -2.026042 144.761612
226 1 2 0.0 18.983065 -6.073441 148.124507
227 1 2 0.0 20.452608 -1.406297 144.164334
228 1 2 0.0 19.588398 -0.201944 142.303010
229 1 1 0.0 13.322330 -10.005522 151.662054
230 1 1 0.0 16.877225 -4.828666 145.235736
231 1 1 0.0 15.090587 -8.803752 149.191145
232 1 1 0.0 17.810406 -5.858473 146.131085
233 1 2 0.0 12.904022 -9.695660 150.970199
234 1 2 0.0 18.967334 -4.464869 144.315883
235 1 2 0.0 14.224373 -7.585090 146.511562
236 1 2 0.0 16.389467 -7.355404 147.428572
237 1 2 0.0 18.561157 -5.930908 146.748441
238 1 2 0.0 14.298486 -9.573577 150.644682
239 1 2 0.0 17.078938 -5.677829 146.158484
240 1 2 0.0 16.561017 -4.834755 144.362973
241 1 1 0.0 24.334738 31.244055 151.778878
242 1 1 0.0 15.677416 38.332146 147.518013
243 1 1 0.0 23.803364 31.605923 148.653946
244 1 1 0.0 20.130611 35.901963 148.011226
245 1 2 0.0 22.151502 32.470343 150.942154
246 1 2 0.0 18.802060 36.837989 146.439896
247 1 2 0.0 16.555787 35.138743 145.748146
248 1 2 0.0 21.645660 33.860005 147.893547
249 1 2 0.0 21.604136 35.809644 149.557723
250 1 2 0.0 24.646638 31.033300 150.465140
251 1 2 0.0 18.320475 36.947591 148.211680
252 1 2 0.0 14.453782 38.028521 145.796828
253 1 1 0.0 24.884416 26.023141 150.487776
254 1 1 0.0 17.700583 33.309048 145.972361
255 1 1 0.0 24.890911 26.535291 147.265047
256 1 1 0.0 21.980215 30.848955 146.344853
257 1 2 0.0 22.828294 27.264969 149.736775
258 1 2 0.0 21.063828 31.926940 144.665624
259 1 2 0.0 18.144430 30.184324 144.572234
260 1 2 0.0 23.128462 28.814734 146.404680
261 1 2 0.0 23.434468 30.644299 147.730458
262 1 2 0.0 25.426278 25.873116 149.104618
263 1 2 0.0 20.150895 31.871707 146.627803
264 1 2 0.0 16.575885 33.125244 144.352856
265 1 1 0.0 24.798333 20.974697 149.644909
266 1 1 0.0 18.966907 28.323800 144.942342
267 1 1 0.0 25.274973 21.602333 146.363910
268 1 1 0.0 23.015645 25.895454 145.236602
269 1 2 0.0 22.900167 22.191654 148.952704
270 1 2 0.0 22.456717 27.078251 143.484095
271 1 2 0.0 19.116447 25.247353 143.816068
272 1 2 0.0 23.868775 23.876590 145.426266
273 1 2 0.0 24.384767 25.631452 146.510932
274 1 2 0.0 25.529202 20.880853 148.218528
275 1 2 0.0 21.206937 26.873471 145.573488
276 1 2 0.0 17.982298 28.221966 143.395871
277 1 1 0.0 24.200275 16.065144 149.163004
278 1 1 0.0 19.663404 23.367049 144.300543
279 1 1 0.0 25.086586 16.781406 145.859681
280 1 1 0.0 23.429924 21.017868 144.554155
281 1 2 0.0 22.481817 17.225361 148.510060
282 1 2 0.0 23.191917 22.276763 142.751238
283 1 2 0.0 19.580361 20.324762 143.405778
284 1 2 0.0 24.019267 19.023545 144.853348
285 1 2 0.0 24.683999 20.731427 145.741022
286 1 2 0.0 25.084874 16.024387 147.716106
287 1 2 0.0 21.675254 21.934167 144.921092
288 1 2 0.0 18.834041 23.318688 142.816308
289 1 1 0.0 23.146438 11.279235 149.002441
290 1 1 0.0 19.875444 18.434526 143.988801
291 1 1 0.0 24.384710 12.060970 145.711482
292 1 1 0.0 23.311507 16.205388 144.236874
293 1 2 0.0 21.625053 12.354778 148.372757
294 1 2 0.0 23.366004 17.515545 142.401169
295 1 2 0.0 19.584251 15.415188 143.308633
296 1 2 0.0 23.649762 14.245527 144.637923
297 1 2 0.0 24.435895 15.926249 145.349094
298 1 2 0.0 24.151878 11.289180 147.556280
299 1 2 0.0 21.641268 17.045229 144.612199
300 1 2 0.0 19.205054 18.415411 142.563854
301 1 1 0.0 21.653663 6.612403 149.151345
302 1 1 0.0 19.638220 13.524470 143.983141
303 1 1 0.0 23.185083 7.437946 145.908399
304 1 1 0.0 22.695675 11.453700 144.260575
305 1 2 0.0 20.344415 7.576732 148.530669
306 1 2 0.0 23.018300 12.791776 142.407062
307 1 2 0.0 19.138582 10.518336 143.517510
308 1 2 0.0 22.783581 9.539170 144.763958
309 1 2 0.0 23.684649 11.208258 145.304629
310 1 2 0.0 22.747042 6.671057 147.727250
311 1 2 0.0 21.139532 12.203193 144.623181
312 1 2 0.0 19.123338 13.512133 142.619457
313 1 1 0.0 19.706362 2.068876 149.620707
314 1 1 0.0 18.952337 8.636853 144.283149
315 1 1 0.0 21.466644 2.916455 146.465035
316 1 1 0.0 21.579905 6.763114 144.626986
317 1 2 0.0 18.623123 2.894885 148.995484
318 1 2 0.0 22.148176 8.105501 142.769348
319 1 2 0.0 18.220437 5.634855 144.048009
320 1 2 0.0 21.407257 4.906417 145.240710
321 1 2 0.0 22.434962 6.576641 145.604378
322 1 2 0.0 20.852334 2.174492 148.241660
323 1 2 0.0 20.168872 7.408177 144.954838
324 1 2 0.0 18.582921 8.608855 142.987181
325 1 1 0.0 17.250129 -2.336587 150.448886
326 1 1 0.0 17.784059 3.773360 144.911811
327 1 1 0.0 19.162822 -1.490474 147.427547
328 1 1 0.0 19.922859 2.138681 145.364446
329 1 2 0.0 16.406162 -1.678753 149.805518
330 1 2 0.0 20.714796 3.459650 143.515884
331 1 2 0.0 16.763913 0.766609 144.944992
332 1 2 0.0 19.465068 0.355307 146.106489
333 1 2 0.0 20.653931 2.037100 146.271066
334 1 2 0.0 18.407449 -2.185551 149.141788
335 1 2 0.0 18.691925 2.663927 145.632723
336 1 2 0.0 17.541460 3.705578 143.695836
337 1 1 0.0 14.164713 -6.571363 151.720662
338 1 1 0.0 16.050466 -1.061862 145.925618
339 1 1 0.0 16.127552 -5.754256 148.897211
340 1 1 0.0 17.625874 -2.407539 146.540589
341 1 2 0.0 13.572510 -6.117759 151.045058
342 1 2 0.0 18.619034 -1.138663 144.714292
343 1 2 0.0 14.625217 -4.082332 146.306341
344 1 2 0.0 16.832214 -4.096152 147.447094
345 1 2 0.0 18.256863 -2.395691 147.363180
346 1 2 0.0 15.279526 -6.376104 150.520781
347 1 2 0.0 16.618530 -2.020516 146.718492
348 1 2 0.0 15.900807 -1.197700 144.812209
349 1 1 0.0 10.172905 -10.560250 153.631479
350 1 1 0.0 13.570255 -5.859745 147.448092
351 1 1 0.0 12.018706 -9.807936 151.111241
352 1 1 0.0 14.472137 -6.849049 148.304042
353 1 2 0.0 9.840564 -10.360659 152.910233
354 1 2 0.0 15.643763 -5.673854 146.512696
355 1 2 0.0 11.459679 -8.902215 148.366676
356 1 2 0.0 13.225870 -8.407155 149.456963
357 1 2 0.0 15.059221 -6.689752 149.008158
358 1 2 0.0 11.160411 -10.320699 152.594679
359 1 2 0.0 13.750994 -6.625330 148.347340
360 1 2 0.0 13.443341 -6.100977 146.484376
361 1 1 0.0 21.154030 32.965967 154.174439
362 1 1 0.0 12.499553 39.399595 149.713950
363 1 1 0.0 20.482903 33.210512 151.080968
364 1 1 0.0 16.995968 37.322915 150.245718
365 1 2 0.0 18.848662 33.978770 153.356756
366 1 2 0.0 15.639242 38.170270 148.651390
367 1 2 0.0 12.956640 36.016006 148.213069
368 1 2 0.0 18.359408 35.314331 150.248055
369 1 2 0.0 18.683968 37.425038 151.703232
370 1 2 0.0 21.427713 32.756669 152.873387
371 1 2 0.0 15.170248 38.220599 150.430961
372 1 2 0.0 11.101773 38.909913 148.077682
373 1 1 0.0 21.228469 27.660217 153.180316
374 1 1 0.0 13.979950 34.202584 148.531251
375 1 1 0.0 21.111416 27.986761 149.978590
376 1 1 0.0 18.306518 32.101504 148.929530
377 1 2 0.0 19.066750 28.674968 152.442033
378 1 2 0.0 17.358929 33.051589 147.234913
379 1 2 0.0 14.137246 30.870060 147.311006
380 1 2 0.0 19.356925 30.101755 149.069756
381 1 2 0.0 19.924121 32.122368 150.255701
382 1 2 0.0 21.735498 27.481446 151.805633
383 1 2 0.0 16.459955 32.984584 149.202301
384 1 2 0.0 12.731734 33.802533 146.968585
385 1 1 0.0 20.813385 22.487267 152.531325
386 1 1 0.0 14.881227 29.034534 147.743103
387 1 1 0.0 21.181569 22.872284 149.263353
388 1 1 0.0 18.973992 26.958688 148.054176
389 1 2 0.0 18.825783 23.471382 151.847027
390 1 2 0.0 18.384953 27.982692 146.291649
391 1 2 0.0 14.844827 25.737499 146.730937
392 1 2 0.0 19.766832 24.973960 148.295433
393 1 2 0.0 20.467124 26.940506 149.289610
394 1 2 0.0 21.512189 22.338010 151.110219
395 1 2 0.0 17.148955 27.808803 148.384438
396 1 2 0.0 13.811983 28.695153 146.233536
397 1 1 0.0 13.257410 -1.890705 153.150371
398 1 1 0.0 13.637707 3.481841 147.719741
399 1 1 0.0 15.156920 -1.452412 150.107568
400 1 1 0.0 15.779336 2.042941 148.155154
401 1 2 0.0 12.420152 -1.411158 152.494199
402 1 2 0.0 16.564413 3.137047 146.317027
403 1 2 0.0 12.849802 0.231271 147.596955
404 1 2 0.0 15.401800 0.260488 148.833766
405 1 2 0.0 16.462565 2.195613 149.099592
406 1 2 0.0 14.402522 -1.892024 151.834805
407 1 2 0.0 14.546974 2.536237 148.430388
408 1 2 0.0 13.473381 3.158253 146.463936
409 1 1 0.0 10.532899 -6.437148 154.129614
410 1 1 0.0 12.243514 -1.571411 148.495484
411 1 1 0.0 12.513128 -6.035760 151.274049
412 1 1 0.0 13.814695 -2.778182 149.084133
413 1 2 0.0 9.974277 -6.133389 153.434847
414 1 2 0.0 14.805300 -1.731963 147.273767
415 1 2 0.0 11.171099 -4.833761 148.641270
416 1 2 0.0 13.142159 -4.482141 149.894729
417 1 2 0.0 14.353834 -2.526738 149.964749
418 1 2 0.0 11.643605 -6.406268 152.917056
419 1 2 0.0 12.808379 -2.396126 149.272651
420 1 2 0.0 12.213215 -1.949127 147.321408
421 1 1 0.0 7.110485 -10.794261 155.600904
422 1 1 0.0 10.278024 -6.596093 149.660448
423 1 1 0.0 9.017233 -10.452349 153.031337
424 1 1 0.0 11.173348 -7.516600 150.476999
425 1 2 0.0 6.846716 -10.706800 154.850267
426 1 2 0.0 12.344037 -6.550581 148.709509
427 1 2 0.0 8.704687 -9.876502 150.221791
428 1 2 0.0 10.112092 -9.113612 151.485353
429 1 2 0.0 11.610900 -7.139188 151.267876
430 1 2 0.0 8.106788 -10.727483 154.544675
431 1 2 0.0 10.453745 -7.266718 150.536196
432 1 2 0.0 10.325666 -7.056507 148.605780
433 1 1 0.0 17.911413 34.459667 0.938183
434 1 1 0.0 9.308531 40.203917 151.909887
435 1 1 0.0 17.115411 34.574776 153.507990
436 1 1 0.0 13.828202 38.472851 152.480210
437 1 2 0.0 15.497054 35.263811 0.139542
438 1 2 0.0 12.456139 39.219909 150.862884
439 1 2 0.0 9.351173 36.669929 150.677992
440 1 2 0.0 15.036646 36.515609 152.602564
441 1 2 0.0 15.714754 38.757395 153.848742
442 1 2 0.0 18.150439 34.244897 155.281635
443 1 2 0.0 11.993493 39.229050 152.650241
444 1 2 0.0 7.749764 39.538149 150.358536
445 1 1 0.0 17.526018 29.125869 0.241039
446 1 1 0.0 10.249070 34.891223 151.090141
447 1 1 0.0 17.296857 29.259062 152.692134
448 1 1 0.0 14.607176 33.144216 151.514207
449 1 2 0.0 15.268736 29.917916 155.147290
450 1 2 0.0 13.638269 33.956640 149.804203
451 1 2 0.0 10.125397 31.390946 150.049777
452 1 2 0.0 15.557719 31.196996 151.734832
453 1 2 0.0 16.375320 33.378530 152.780943
454 1 2 0.0 18.001018 28.913667 154.506649
455 1 2 0.0 12.748428 33.892152 151.776798
456 1 2 0.0 8.887583 34.285290 149.584314
457 1 1 0.0 16.797338 23.885199 155.417741
458 1 1 0.0 10.788213 29.598603 150.543864
459 1 1 0.0 17.065068 24.024218 152.162795
460 1 1 0.0 14.914170 27.873267 150.871750
461 1 2 0.0 14.727229 24.640393 154.741349
462 1 2 0.0 14.301952 28.730579 149.099203
463 1 2 0.0 10.570197 26.121286 149.645807
464 1 2 0.0 15.646059 25.940819 151.164599
465 1 2 0.0 16.521621 28.088781 152.068288
466 1 2 0.0 17.466123 23.678090 154.001911
467 1 2 0.0 13.076327 28.598073 151.195388
468 1 2 0.0 9.641668 29.032430 149.071202
469 1 1 0.0 9.310618 -1.275526 0.220040
470 1 1 0.0 9.498581 3.334809 150.527672
471 1 1 0.0 11.187761 -1.226597 152.787589
472 1 1 0.0 11.655031 2.104444 150.945862
473 1 2 0.0 8.471466 -0.972603 155.182881
474 1 2 0.0 12.425417 2.973111 149.118171
475 1 2 0.0 8.940957 -0.117972 150.248918
476 1 2 0.0 11.363900 0.341497 151.561042
477 1 2 0.0 12.296303 2.498990 151.928118
478 1 2 0.0 10.441786 -1.420411 154.527822
479 1 2 0.0 10.417082 2.558721 151.228053
480 1 2 0.0 9.405301 2.768132 149.232036
481 1 1 0.0 6.962419 -6.076849 0.906749
482 1 1 0.0 8.446699 -1.878244 151.065351
483 1 1 0.0 8.947416 -6.068358 153.650886
484 1 1 0.0 10.030212 -2.930404 151.627676
485 1 2 0.0 6.425666 -5.921722 0.192819
486 1 2 0.0 11.007477 -2.103554 149.833243
487 1 2 0.0 7.723902 -5.340604 150.976199
488 1 2 0.0 9.486313 -4.631034 152.342365
489 1 2 0.0 10.486501 -2.451792 152.566317
490 1 2 0.0 8.066523 -6.199315 155.313330
491 1 2 0.0 9.019226 -2.562315 151.826810
492 1 2 0.0 8.525623 -2.484728 149.830608
493 1 1 0.0 4.124804 -10.745401 1.938513
494 1 1 0.0 6.998843 -7.071495 151.872805
495 1 1 0.0 6.076439 -10.786703 154.951434
496 1 1 0.0 7.908730 -7.904550 152.649956
497 1 2 0.0 3.914788 -10.769310 1.158486
498 1 2 0.0 9.064748 -7.142555 150.906322
499 1 2 0.0 5.958272 -10.547712 152.076905
500 1 2 0.0 7.041363 -9.521705 153.513744
501 1 2 0.0 8.208868 -7.321504 153.527593
502 1 2 0.0 5.126653 -10.838115 0.862856
503 1 2 0.0 7.183435 -7.639437 152.725052
504 1 2 0.0 7.207990 -7.737588 150.727183
505 1 1 0.0 14.612014 35.744063 3.333743
506 1 1 0.0 6.105403 40.766156 154.105825
507 1 1 0.0 13.705576 35.722680 0.303196
508 1 1 0.0 10.630513 39.377956 154.714702
509 1 2 0.0 12.100405 36.342536 2.554143
510 1 2 0.0 9.254854 40.016202 153.074377
511 1 2 0.0 5.739898 37.118627 153.142915
512 1 2 0.0 11.680946 37.488600 154.957072
513 1 2 0.0 12.701324 39.834587 0.362436
514 1 2 0.0 14.820232 35.519804 2.058066
515 1 2 0.0 8.792505 39.995828 154.869521
516 1 2 0.0 4.397755 39.933913 152.639391
517 1 1 0.0 13.780916 30.434299 2.933579
518 1 1 0.0 6.508763 35.391352 153.649032
519 1 1 0.0 13.450730 30.370057 155.405678
520 1 1 0.0 10.884666 33.997368 154.098885
521 1 2 0.0 11.437040 31.006579 2.220732
522 1 2 0.0 9.903483 34.664853 152.373493
523 1 2 0.0 6.109261 31.760355 152.788549
524 1 2 0.0 11.733549 32.119224 154.399908
525 1 2 0.0 12.791853 34.434636 155.306186
526 1 2 0.0 14.226894 30.186122 1.575848
527 1 2 0.0 9.018096 34.612169 154.351296
528 1 2 0.0 5.043433 34.589407 152.200043
529 1 1 0.0 12.752769 25.177991 2.672341
530 1 1 0.0 6.688450 30.027734 153.344625
531 1 1 0.0 12.927774 25.069904 155.062238
532 1 1 0.0 10.837936 28.653552 153.689324
533 1 2 0.0 10.606352 25.707150 2.003855
534 1 2 0.0 10.208881 29.338138 151.906758
535 1 2 0.0 6.292802 26.407342 152.560676
536 1 2 0.0 11.508298 26.789937 154.033766
537 1 2 0.0 12.551001 29.092109 154.846966
538 1 2 0.0 13.393703 24.911958 1.261786
539 1 2 0.0 8.990321 29.253915 154.006338
540 1 2 0.0 5.471353 29.244901 151.908867
541 1 1 0.0 5.405949 -0.505076 2.921526
542 1 1 0.0 5.366103 3.320706 153.335602
543 1 1 0.0 7.251682 -0.831750 155.467609
544 1 1 0.0 7.548086 2.307996 153.736570
545 1 2 0.0 4.557249 -0.376151 2.239746
546 1 2 0.0 8.296628 2.951394 151.919315
547 1 2 0.0 5.036951 -0.296215 152.900881
548 1 2 0.0 7.348887 0.581130 154.288319
549 1 2 0.0 8.152671 2.932966 154.756644
550 1 2 0.0 6.521140 -0.787239 1.589023
551 1 2 0.0 6.300945 2.718389 154.025719
552 1 2 0.0 5.337222 2.522371 152.000136
553 1 1 0.0 3.448189 -5.509196 3.315700
554 1 1 0.0 4.659211 -1.998574 153.635217
555 1 1 0.0 5.425558 -5.876868 0.395908
556 1 1 0.0 6.269844 -2.885306 154.171220
557 1 2 0.0 2.922884 -5.500128 2.582607
558 1 2 0.0 7.223917 -2.276415 152.392718
559 1 2 0.0 4.283066 -5.622700 153.311129
560 1 2 0.0 5.861328 -4.566029 154.790000
561 1 2 0.0 6.651349 -2.191138 155.167885
562 1 2 0.0 4.542820 -5.777248 2.077788
563 1 2 0.0 5.249256 -2.537196 154.380969
564 1 2 0.0 4.838031 -2.822135 152.339807
565 1 1 0.0 1.209503 -10.437105 3.907939
566 1 1 0.0 3.731668 -7.306819 154.085161
567 1 1 0.0 3.190275 -10.841912 1.239714
568 1 1 0.0 4.674984 -8.039913 154.822914
569 1 2 0.0 1.040048 -10.569862 3.098520
570 1 2 0.0 5.803777 -7.479290 153.103135
571 1 2 0.0 3.219738 -10.940428 153.932019
572 1 2 0.0 4.009470 -9.660627 155.542134
573 1 2 0.0 4.848567 -7.263002 0.155495
574 1 2 0.0 2.213185 -10.680081 2.812852
575 1 2 0.0 3.937735 -7.766727 154.913908
576 1 2 0.0 4.090315 -8.166641 152.848586
577 1 1 0.0 11.258794 36.830061 5.729304
578 1 1 0.0 2.890767 41.098296 0.669946
579 1 1 0.0 10.256238 36.668735 2.730217
580 1 1 0.0 7.404827 40.053990 1.317378
581 1 2 0.0 8.660800 37.224492 4.968745
582 1 2 0.0 6.036668 40.577012 155.285871
583 1 2 0.0 2.123110 37.372474 155.607838
584 1 2 0.0 8.294464 38.248242 1.679765
585 1 2 0.0 9.646594 40.673454 2.507946
586 1 2 0.0 11.440320 36.594404 4.466314
587 1 2 0.0 5.568626 40.534319 1.456986
588 1 2 0.0 1.045746 40.109076 154.920245
589 1 1 0.0 9.995384 31.593699 5.626119
590 1 1 0.0 2.759495 35.712304 0.576106
591 1 1 0.0 9.575153 31.330567 2.487405
592 1 1 0.0 7.140479 34.673158 1.051746
593 1 2 0.0 7.573221 31.948096 4.925989
594 1 2 0.0 6.155565 35.190109 154.942782
595 1 2 0.0 2.089055 31.985943 155.527321
596 1 2 0.0 7.886051 32.879759 1.433168
597 1 2 0.0 9.176006 35.303888 2.199612
598 1 2 0.0 10.415542 31.308557 4.276864
599 1 2 0.0 5.269999 35.155024 1.293978
600 1 2 0.0 1.199282 34.724008 154.815772
601 1 1 0.0 8.681163 26.371122 5.558757
602 1 1 0.0 2.582274 30.328609 0.513571
603 1 1 0.0 8.771082 26.016468 2.329865
604 1 1 0.0 6.746345 29.308188 0.875082
605 1 2 0.0 6.464184 26.676383 4.898178
606 1 2 0.0 6.106449 29.815265 154.714312
607 1 2 0.0 2.012780 26.600606 155.475545
608 1 2 0.0 7.354661 27.529018 1.271116
609 1 2 0.0 8.556920 29.960056 1.993828
610 1 2 0.0 9.296534 26.046094 4.153477
611 1 2 0.0 4.891676 29.783720 1.185472
612 1 2 0.0 1.301038 29.338940 154.746533
613 1 1 0.0 1.541207 0.412555 5.623011
614 1 1 0.0 1.239943 3.432952 0.511717
615 1 1 0.0 3.346464 -0.279209 2.515814
616 1 1 0.0 3.457385 2.644456 0.895461
617 1 2 0.0 0.675908 0.370890 4.928428
618 1 2 0.0 4.177327 3.061869 154.720459
619 1 2 0.0 1.137540 -0.312100 155.552844
620 1 2 0.0 3.355262 0.969007 1.383779
621 1 2 0.0 4.030177 3.488922 1.953353
622 1 2 0.0 2.638138 -0.002361 4.282040
623 1 2 0.0 2.197801 3.007643 1.191568
624 1 2 0.0 1.269143 2.413599 154.768236
625 1 1 0.0 -0.012720 -4.744995 5.724651
626 1 1 0.0 0.880589 -1.941634 0.573268
627 1 1 0.0 1.944614 -5.476320 2.772746
628 1 1 0.0 2.532039 -2.655591 1.082947
629 1 2 0.0 -0.536189 -4.878323 4.972395
630 1 2 0.0 3.453615 -2.264560 154.952193
631 1 2 0.0 0.848268 -5.691408 0.014242
632 1 2 0.0 2.265185 -4.301125 1.605820
633 1 2 0.0 2.846255 -1.757031 2.137637
634 1 2 0.0 1.069239 -5.153188 4.474062
635 1 2 0.0 1.497406 -2.331367 1.303312
636 1 2 0.0 1.150440 -2.971469 154.849006
637 1 1 0.0 -1.639085 -9.882892 5.877364
638 1 1 0.0 0.475905 -7.313953 0.665701
639 1 1 0.0 0.355077 -10.636701 3.159810
640 1 1 0.0 1.470121 -7.938946 1.364055
641 1 2 0.0 -1.780150 -10.120580 5.038554
642 1 2 0.0 2.559833 -7.578784 155.299948
643 1 2 0.0 0.488686 -11.068728 0.155318
644 1 2 0.0 1.013872 -9.547994 1.938709
645 1 2 0.0 1.527243 -6.979575 2.415212
646 1 2 0.0 -0.637681 -10.269766 4.762849
647 1 2 0.0 0.715281 -7.662181 1.470947
648 1 2 0.0 0.972639 -8.356538 154.969989
649 1 1 0.0 7.853024 37.722349 8.124864
650 1 1 0.0 -0.335133 41.205205 2.865884
651 1 1 0.0 6.768887 37.420551 5.157239
652 1 1 0.0 4.152130 40.509010 3.551870
653 1 2 0.0 5.179013 37.913231 7.383347
654 1 2 0.0 2.802273 40.911965 1.865549
655 1 2 0.0 -1.499071 37.435784 2.440945
656 1 2 0.0 4.878313 38.802257 4.034273
657 1 2 0.0 6.552081 41.282738 4.653456
658 1 2 0.0 8.012295 37.475111 6.874562
659 1 2 0.0 2.322469 40.850628 3.676266
660 1 2 0.0 -2.306263 40.068632 1.569283
661 1 1 0.0 6.170378 32.607592 8.318659
662 1 1 0.0 -0.998544 35.857868 3.134996
663 1 1 0.0 5.671235 32.146265 5.200949
664 1 1 0.0 3.375378 35.177826 3.636423
665 1 2 0.0 3.677857 32.745122 7.631247
666 1 2 0.0 2.395054 35.539886 1.880256
667 1 2 0.0 -1.935130 32.070893 2.634277
668 1 2 0.0 4.016067 33.484452 4.098244
669 1 2 0.0 5.528967 35.993142 4.724855
670 1 2 0.0 6.568157 32.285777 6.977879
671 1 2 0.0 1.504613 35.525454 3.868476
672 1 2 0.0 -2.644869 34.692930 1.799685
673 1 1 0.0 4.583160 27.466947 8.445173
674 1 1 0.0 -1.530181 30.503941 3.314332
675 1 1 0.0 4.595723 26.867646 5.229308
676 1 1 0.0 2.639937 29.841594 3.692656
677 1 2 0.0 2.301110 27.549853 7.792500
678 1 2 0.0 1.995038 30.167291 1.890050
679 1 2 0.0 -2.269809 26.703133 2.758598
680 1 2 0.0 3.185723 28.162045 4.140282
681 1 2 0.0 4.540240 30.697588 4.772507
682 1 2 0.0 5.175410 27.083691 7.045168
683 1 2 0.0 0.780731 30.190857 3.996422
684 1 2 0.0 -2.869278 29.317227 1.952382
685 1 1 0.0 -2.284550 1.473888 8.324496
686 1 1 0.0 -2.880031 3.668875 3.319647
687 1 1 0.0 -0.529055 0.425081 5.195835
688 1 1 0.0 -0.617644 3.109147 3.686169
689 1 2 0.0 -3.173151 1.265804 7.617109
690 1 2 0.0 0.067125 3.299133 1.889786
691 1 2 0.0 -2.757378 -0.169222 2.572991
692 1 2 0.0 -0.617747 1.499763 4.111056
693 1 2 0.0 -0.071954 4.162384 4.781879
694 1 2 0.0 -1.208425 0.929361 6.975056
695 1 2 0.0 -1.892696 3.423017 3.989233
696 1 2 0.0 -2.798937 2.438713 1.904520
697 1 1 0.0 -3.421568 -3.788889 8.133603
698 1 1 0.0 -2.889356 -1.711173 3.143134
699 1 1 0.0 -1.496960 -4.874597 5.149583
700 1 1 0.0 -1.183995 -2.247751 3.626491
701 1 2 0.0 -3.952343 -4.059917 7.362183
702 1 2 0.0 -0.303973 -2.075539 1.879853
703 1 2 0.0 -2.580625 -5.551454 2.349172
704 1 2 0.0 -1.303160 -3.843555 4.053455
705 1 2 0.0 -0.929885 -1.155835 4.739206
706 1 2 0.0 -2.355824 -4.333607 6.870336
707 1 2 0.0 -2.236808 -1.949660 3.857471
708 1 2 0.0 -2.537152 -2.936989 1.726390