
48399 atoms
51 bonds

4 atom types
1 bond types

-51.665149 51.674429 xlo xhi
-51.678608 51.675743 ylo yhi
0.000000 150.699170 zlo zhi

Masses

1 47.867000
2 15.999400
3 15.999400
4 1.008000

Atoms

1 1 1 0.0 22.939513 34.194659 136.810854
2 1 1 0.0 21.131316 34.526957 135.081471
3 1 2 0.0 22.985099 32.915909 133.772716
4 1 2 0.0 19.253449 36.166932 136.407230
5 1 2 0.0 23.192153 32.682441 136.566709
6 1 2 0.0 23.186111 33.587769 136.610554
7 1 1 0.0 26.093659 30.339166 134.419738
8 1 1 0.0 23.768179 30.700246 133.219869
9 1 2 0.0 25.448047 29.192699 132.033896
10 1 2 0.0 22.070951 32.243639 134.418097
11 1 2 0.0 25.335168 28.652395 134.880439
12 1 2 0.0 25.856236 29.653845 134.557067
13 1 1 0.0 28.215896 26.547710 132.758541
14 1 1 0.0 25.584594 26.873534 131.937495
15 1 2 0.0 27.122210 25.469490 130.851951
16 1 2 0.0 24.025647 28.320347 133.038098
17 1 2 0.0 26.723648 24.669173 133.727889
18 1 2 0.0 27.633631 25.775321 133.135052
19 1 1 0.0 29.566684 22.804127 131.643030
20 1 1 0.0 26.748231 23.046823 131.115977
21 1 2 0.0 28.148682 21.746280 130.127271
22 1 2 0.0 25.318171 24.397055 132.125587
23 1 2 0.0 27.499223 20.723987 133.008877
24 1 2 0.0 28.716598 21.939891 132.204240
25 1 1 0.0 30.272258 19.100585 130.983909
26 1 1 0.0 27.342561 19.220111 130.696385
27 1 2 0.0 28.597294 18.023071 129.810555
28 1 2 0.0 26.047286 20.473762 131.610839
29 1 2 0.0 27.732286 16.812467 132.673611
30 1 2 0.0 29.203324 18.141462 131.695179
31 1 1 0.0 30.394194 15.433262 130.737626
32 1 1 0.0 27.404648 15.393399 130.652552
33 1 2 0.0 28.495350 14.299861 129.882526
34 1 2 0.0 26.259962 16.550470 131.460691
35 1 2 0.0 27.451912 12.932809 132.701524
36 1 2 0.0 29.139593 14.377192 131.575483
37 1 1 0.0 29.953440 11.800858 130.889360
38 1 1 0.0 26.938173 11.566688 130.981880
39 1 2 0.0 27.836802 10.576652 130.347455
40 1 2 0.0 25.968893 12.627178 131.666183
41 1 2 0.0 26.655761 9.085160 133.094272
42 1 2 0.0 28.535470 10.646458 131.838034
43 1 1 0.0 28.937214 8.204166 131.448155
44 1 1 0.0 25.914608 7.739976 131.704508
45 1 2 0.0 26.580313 6.853442 131.234526
46 1 2 0.0 25.156598 8.703885 132.239657
47 1 2 0.0 25.309335 5.271658 133.876257
48 1 2 0.0 27.368540 6.950650 132.498685
49 1 1 0.0 27.294868 4.646329 132.449834
50 1 1 0.0 24.263553 3.913265 132.870139
51 1 2 0.0 24.634556 3.130233 132.608214
52 1 2 0.0 23.769700 4.780593 133.218794
53 1 2 0.0 23.333940 1.497189 135.103142
54 1 2 0.0 25.576489 3.293636 133.601516
55 1 1 0.0 24.919177 1.134001 133.970246
56 1 1 0.0 21.843177 0.086553 134.578904
57 1 2 0.0 21.815878 -0.592977 134.598176
58 1 2 0.0 21.698298 0.857301 134.681187
59 1 2 0.0 20.571542 -2.228441 136.886714
60 1 2 0.0 23.032338 -0.316706 135.236345
61 1 1 0.0 21.592842 -2.319332 136.163095
62 1 1 0.0 18.351569 -3.740158 137.043949
63 1 2 0.0 17.712329 -4.316186 137.495247
64 1 2 0.0 18.716486 -3.065992 136.786321
65 1 2 0.0 16.674977 -5.883688 139.472539
66 1 2 0.0 19.472296 -3.864004 137.589763
67 1 1 0.0 20.304159 36.046593 138.748800
68 1 1 0.0 18.142119 35.884354 137.191819
69 1 2 0.0 19.867863 34.274394 135.973458
70 1 2 0.0 16.407372 37.517261 138.416536
71 1 2 0.0 20.201938 34.113883 138.736316
72 1 2 0.0 20.384249 35.243530 138.657250
73 1 1 0.0 22.991316 31.890202 136.673583
74 1 1 0.0 20.405976 31.763721 135.593555
75 1 2 0.0 21.996786 30.236276 134.470457
76 1 2 0.0 18.808386 33.319654 136.721440
77 1 2 0.0 21.980712 29.824731 137.295373
78 1 2 0.0 22.635741 31.027751 136.886421
79 1 1 0.0 24.782895 27.789388 135.231854
80 1 1 0.0 21.965445 27.643088 134.492584
81 1 2 0.0 23.443899 26.198159 133.448807
82 1 2 0.0 20.474136 29.122047 135.545435
83 1 2 0.0 23.114725 25.575591 136.310502
84 1 2 0.0 24.117387 26.859746 135.660143
85 1 1 0.0 25.904942 23.730123 134.263717
86 1 1 0.0 22.964476 23.522456 133.787276
87 1 2 0.0 24.331161 22.160042 132.822408
88 1 2 0.0 21.575596 24.924440 134.767813
89 1 2 0.0 23.725001 21.358952 135.696095
90 1 2 0.0 25.000191 22.728904 134.857455
91 1 1 0.0 26.467018 19.705608 133.691675
92 1 1 0.0 23.474733 19.401823 133.427039
93 1 2 0.0 24.718932 18.121925 132.548645
94 1 2 0.0 22.196932 20.726833 134.329156
95 1 2 0.0 23.871693 17.171082 135.409605
96 1 2 0.0 25.368825 18.629970 134.418466
97 1 1 0.0 26.522561 15.712528 133.477929
98 1 1 0.0 23.528037 15.281191 133.389406
99 1 2 0.0 24.630814 14.083807 132.610856
100 1 2 0.0 22.378171 16.529226 134.201203
101 1 2 0.0 23.579644 13.010439 135.433458
102 1 2 0.0 25.262771 14.560493 134.315246
103 1 1 0.0 26.089755 11.749753 133.609617
104 1 1 0.0 23.127549 11.160558 133.672148
105 1 2 0.0 24.061578 10.045690 133.012731
106 1 2 0.0 22.130128 12.331619 134.376319
107 1 2 0.0 22.846857 8.877148 135.769067
108 1 2 0.0 24.690710 10.519936 134.541657
109 1 1 0.0 25.157504 7.817972 134.094587
110 1 1 0.0 22.248776 7.039925 134.292554
111 1 2 0.0 22.975494 6.007573 133.779498
112 1 2 0.0 21.437907 8.134012 134.865021
113 1 2 0.0 21.643852 4.773036 136.437284
114 1 2 0.0 23.633311 6.509497 135.111371
115 1 1 0.0 23.681852 3.919912 134.963931
116 1 1 0.0 20.831275 2.919293 135.293297
117 1 2 0.0 21.293620 1.969455 134.966886
118 1 2 0.0 20.256023 3.936406 135.699421
119 1 2 0.0 19.903384 0.702278 137.485676
120 1 2 0.0 22.036837 2.532511 136.062400
121 1 1 0.0 21.569740 0.061350 136.283475
122 1 1 0.0 18.753282 -1.201340 136.760343
123 1 2 0.0 18.857211 -2.068662 136.686970
124 1 2 0.0 18.490819 -0.261201 136.945640
125 1 2 0.0 17.490409 -3.326746 139.009765
126 1 2 0.0 19.791789 -1.404225 137.472197
127 1 1 0.0 18.632578 -3.746012 138.186618
128 1 1 0.0 15.755590 -5.321972 138.876688
129 1 2 0.0 15.310185 -6.106779 139.191140
130 1 2 0.0 15.949784 -4.458808 138.739589
131 1 2 0.0 14.108273 -7.295627 141.219390
132 1 2 0.0 16.670684 -5.286597 139.501673
133 1 1 0.0 17.647597 37.556762 140.686745
134 1 1 0.0 15.152923 36.963482 139.302166
135 1 2 0.0 16.750626 35.356374 138.174201
136 1 2 0.0 13.561294 38.587267 140.425842
137 1 2 0.0 17.195816 35.288990 140.905922
138 1 2 0.0 17.563705 36.598247 140.703945
139 1 1 0.0 19.871909 33.166247 138.927428
140 1 1 0.0 17.043774 32.609182 137.967241
141 1 2 0.0 18.545525 31.067445 136.907018
142 1 2 0.0 15.545821 34.172292 139.024783
143 1 2 0.0 18.613946 30.798693 139.710307
144 1 2 0.0 19.400446 32.163149 139.215775
145 1 1 0.0 21.336972 28.822849 137.705166
146 1 1 0.0 18.346295 28.254883 137.047672
147 1 2 0.0 19.765588 26.778516 136.045664
148 1 2 0.0 16.922624 29.757317 138.052772
149 1 2 0.0 19.497088 26.341595 138.893115
150 1 2 0.0 20.590223 27.768201 138.185235
151 1 1 0.0 22.234422 24.514676 136.884403
152 1 1 0.0 19.180721 23.900584 136.458575
153 1 2 0.0 20.513640 22.489587 135.517545
154 1 2 0.0 17.833022 25.342342 137.410039
155 1 2 0.0 19.945662 21.911465 138.383314
156 1 2 0.0 21.276744 23.404482 137.510671
157 1 1 0.0 22.657143 20.235962 136.399441
158 1 1 0.0 19.606905 19.546284 136.157692
159 1 2 0.0 20.840570 18.200658 135.286735
160 1 2 0.0 18.346578 20.927367 137.047472
161 1 2 0.0 20.009579 17.505206 138.145600
162 1 2 0.0 21.531168 19.067579 137.141753
163 1 1 0.0 22.650439 15.983898 136.218232
164 1 1 0.0 19.651427 15.191985 136.126261
165 1 2 0.0 20.766278 13.911729 135.339185
166 1 2 0.0 18.496379 16.512392 136.941715
167 1 2 0.0 19.709453 13.121539 138.165392
168 1 2 0.0 21.386672 14.755431 137.055009
169 1 1 0.0 22.229723 11.757526 136.329874
170 1 1 0.0 19.316925 10.837685 136.362416
171 1 2 0.0 20.286355 9.622800 135.678007
172 1 2 0.0 18.291362 12.097417 137.086455
173 1 2 0.0 19.043627 8.760565 138.443862
174 1 2 0.0 20.850553 10.467586 137.245280
175 1 1 0.0 21.385591 7.557430 136.741019
176 1 1 0.0 18.582943 6.483386 136.880601
177 1 2 0.0 19.370675 5.333871 136.324469
178 1 2 0.0 17.719217 7.682443 137.490384
179 1 2 0.0 17.987640 4.423804 138.998312
180 1 2 0.0 19.906566 6.205052 137.724057
181 1 1 0.0 20.080777 3.385922 137.478028
182 1 1 0.0 17.398998 2.129086 137.716456
183 1 2 0.0 17.952685 1.044941 137.325558
184 1 2 0.0 16.742346 3.267468 138.180047
185 1 2 0.0 16.485695 0.114718 139.868210
186 1 2 0.0 18.509550 1.970632 138.523283
187 1 1 0.0 18.236388 -0.752101 138.596704
188 1 1 0.0 15.663386 -2.225213 138.941783
189 1 2 0.0 15.898545 -3.243988 138.775763
190 1 2 0.0 15.283340 -1.147507 139.210092
191 1 2 0.0 14.425742 -4.159740 141.132815
192 1 2 0.0 16.567485 -2.229964 139.708050
193 1 1 0.0 15.692542 -4.846717 140.210142
194 1 1 0.0 13.159611 -6.579513 140.709427
195 1 2 0.0 12.908041 -7.532917 140.887033
196 1 2 0.0 13.183081 -5.562482 140.692857
197 1 2 0.0 11.561630 -8.384294 142.966241
198 1 2 0.0 13.889200 -6.384872 141.413582
199 1 1 0.0 14.973581 38.785671 142.624691
200 1 1 0.0 12.163726 37.807381 141.412514
201 1 2 0.0 13.633390 36.208280 140.374943
202 1 2 0.0 10.715217 39.416868 142.435148
203 1 2 0.0 14.176120 36.245360 143.075528
204 1 2 0.0 14.727525 37.701010 142.750641
205 1 1 0.0 16.738458 34.215985 141.181273
206 1 1 0.0 13.681571 33.270349 140.340928
207 1 2 0.0 15.094264 31.721872 139.343579
208 1 2 0.0 12.283256 34.833363 141.328126
209 1 2 0.0 15.236675 31.603377 142.125240
210 1 2 0.0 16.152763 33.098933 141.545129
211 1 1 0.0 17.880415 29.684956 140.178478
212 1 1 0.0 14.727146 28.733318 139.602761
213 1 2 0.0 16.087277 27.235464 138.642520
214 1 2 0.0 13.371112 30.249857 140.560109
215 1 2 0.0 15.872015 26.987781 141.475727
216 1 2 0.0 17.053919 28.529378 140.710326
217 1 1 0.0 18.556679 25.182826 139.505090
218 1 1 0.0 15.396966 24.196287 139.129874
219 1 2 0.0 16.696119 22.749057 138.212682
220 1 2 0.0 14.090447 25.666352 140.052265
221 1 2 0.0 16.161956 22.393619 141.070532
222 1 2 0.0 17.547406 23.985122 140.163887
223 1 1 0.0 18.843455 20.704866 139.107206
224 1 1 0.0 15.739077 19.659255 138.888346
225 1 2 0.0 16.962209 18.262649 138.024825
226 1 2 0.0 14.496225 21.082846 139.765789
227 1 2 0.0 16.146168 17.818431 140.881595
228 1 2 0.0 17.690867 19.462588 139.865040
229 1 1 0.0 18.777913 16.248771 138.958535
230 1 1 0.0 15.774816 15.122224 138.863115
231 1 2 0.0 16.901742 13.776241 138.067515
232 1 2 0.0 14.614587 16.499341 139.682226
233 1 2 0.0 15.841035 13.261198 140.897325
234 1 2 0.0 17.511178 14.960108 139.794772
235 1 1 0.0 18.372699 11.813755 139.050131
236 1 1 0.0 15.506301 10.585193 139.052684
237 1 2 0.0 16.511131 9.289834 138.343283
238 1 2 0.0 14.452597 11.915835 139.796590
239 1 2 0.0 15.245239 8.722003 141.118656
240 1 2 0.0 17.014249 10.477315 139.948904
241 1 1 0.0 17.620096 7.400296 139.387452
242 1 1 0.0 14.917111 6.048161 139.468647
243 1 2 0.0 15.765856 4.803426 138.869440
244 1 2 0.0 14.000526 7.332330 140.115748
245 1 2 0.0 14.339339 4.202052 141.559339
246 1 2 0.0 16.186921 6.015025 140.336743
247 1 1 0.0 16.489530 3.010293 139.992124
248 1 1 0.0 13.966721 1.511130 140.139614
249 1 2 0.0 14.611749 0.317018 139.684230
250 1 2 0.0 13.228669 2.748824 140.660673
251 1 2 0.0 13.078987 -0.295903 142.250744
252 1 2 0.0 14.992612 1.575509 140.984167
253 1 1 0.0 14.916274 -1.352238 140.909934
254 1 1 0.0 12.573491 -3.025901 141.123223
255 1 2 0.0 12.939878 -4.169389 140.864557
256 1 2 0.0 12.075861 -1.834681 141.474545
257 1 2 0.0 11.375123 -4.766335 143.255865
258 1 2 0.0 13.356778 -2.836607 141.943903
259 1 1 0.0 12.769154 -5.679157 142.233665
260 1 1 0.0 10.563632 -7.562933 142.542166
261 1 2 0.0 10.505897 -8.655797 142.582927
262 1 2 0.0 10.416379 -6.418187 142.646126
263 1 2 0.0 9.032107 -9.197103 144.713092
264 1 2 0.0 11.124559 -7.211713 143.325491
265 1 1 0.0 12.284466 39.771279 144.562636
266 1 1 0.0 9.174529 38.443652 143.522861
267 1 2 0.0 10.516153 36.859524 142.575685
268 1 2 0.0 7.869140 40.031893 144.444454
269 1 2 0.0 11.144355 37.007254 145.245135
270 1 2 0.0 11.877649 38.583066 144.797336
271 1 1 0.0 13.592858 35.069958 143.435118
272 1 1 0.0 10.319369 33.768847 142.714614
273 1 2 0.0 11.643003 32.222153 141.780140
274 1 2 0.0 9.020691 35.323448 143.631469
275 1 2 0.0 11.850063 32.257558 144.540174
276 1 2 0.0 12.894229 33.859857 143.874483
277 1 1 0.0 14.414659 30.398833 142.651790
278 1 1 0.0 11.107997 29.094042 142.157849
279 1 2 0.0 12.408966 27.584781 141.239376
280 1 2 0.0 9.819601 30.615002 143.067446
281 1 2 0.0 12.240331 27.527438 144.058340
282 1 2 0.0 13.509609 29.161544 143.235417
283 1 1 0.0 14.872687 25.750283 142.125777
284 1 1 0.0 11.613210 24.419237 141.801173
285 1 2 0.0 12.878598 22.947410 140.907820
286 1 2 0.0 10.347872 25.906556 142.694490
287 1 2 0.0 12.374369 22.813218 143.757751
288 1 2 0.0 13.812907 24.482599 142.817103
289 1 1 0.0 11.251278 5.720017 142.056694
290 1 2 0.0 12.161037 4.397924 141.414412
291 1 2 0.0 10.281835 7.072773 142.741112
292 1 2 0.0 10.698071 4.093639 144.120367
293 1 2 0.0 12.473496 5.925225 142.949429
294 1 1 0.0 12.906784 2.771652 142.506221
295 1 1 0.0 10.534444 1.045211 142.562773
296 1 2 0.0 11.270814 -0.239447 142.042902
297 1 2 0.0 9.714992 2.364328 143.141299
298 1 2 0.0 9.682041 -0.549210 144.633277
299 1 2 0.0 11.484738 1.326461 143.445050
300 1 1 0.0 11.607611 -1.767851 143.223163
301 1 1 0.0 9.483595 -3.629594 143.304663
302 1 2 0.0 9.981211 -4.876818 142.953350
303 1 2 0.0 8.868382 -2.344118 143.738998
304 1 2 0.0 8.336996 -5.171642 145.378916
305 1 2 0.0 10.157981 -3.251328 144.179755
306 1 1 0.0 9.860168 -6.279536 144.257189
307 1 1 0.0 7.967653 -8.304399 144.374905
308 1 2 0.0 8.103753 -9.514190 144.278820
309 1 2 0.0 7.649676 -7.052564 144.599394
310 1 2 0.0 6.517803 -9.764650 146.459943
311 1 2 0.0 8.374674 -7.800785 145.237400
312 1 1 0.0 9.581782 40.538245 146.500582
313 1 1 0.0 6.185332 38.890289 145.633209
314 1 2 0.0 7.398917 37.329264 144.776428
315 1 2 0.0 5.023063 40.449128 146.453761
316 1 2 0.0 8.101502 37.590461 147.414741
317 1 2 0.0 9.015340 39.264781 146.844031
318 1 1 0.0 10.436341 35.748007 145.688963
319 1 1 0.0 6.957166 34.118772 145.088300
320 1 2 0.0 8.191741 32.583003 144.216701
321 1 2 0.0 5.758125 35.655923 145.934813
322 1 2 0.0 8.454871 32.773457 146.955108
323 1 2 0.0 9.625844 34.462057 146.203836
324 1 1 0.0 10.940637 30.979506 145.125102
325 1 1 0.0 7.488847 29.347256 144.712938
326 1 2 0.0 8.730655 27.836742 143.836232
327 1 2 0.0 6.268089 30.862717 145.574783
328 1 2 0.0 8.602574 27.969215 146.640953
329 1 2 0.0 9.958031 29.676604 145.760509
330 1 1 0.0 11.183080 26.227254 144.746463
331 1 1 0.0 7.829455 24.575739 144.472472
332 1 2 0.0 9.061077 23.090481 143.602957
333 1 2 0.0 6.605298 26.069512 145.336716
334 1 2 0.0 8.583215 23.175341 146.444969
335 1 2 0.0 10.073723 24.904586 145.470319
336 1 1 0.0 7.585446 5.489672 144.644740
337 1 2 0.0 8.556218 4.105438 143.959383
338 1 2 0.0 6.563145 6.896690 145.366476
339 1 2 0.0 7.063266 4.089364 146.681394
340 1 2 0.0 8.765717 5.926403 145.562115
341 1 1 0.0 9.331677 2.656114 145.020318
342 1 1 0.0 7.102166 0.718156 144.985931
343 1 2 0.0 7.929878 -0.640823 144.401574
344 1 2 0.0 6.201315 2.103484 145.621925
345 1 2 0.0 6.294065 -0.657977 147.015811
346 1 2 0.0 7.985093 1.210008 145.905934
347 1 1 0.0 8.309238 -2.017643 145.536392
348 1 1 0.0 6.393700 -4.053361 145.486102
349 1 2 0.0 7.022544 -5.387084 145.042144
350 1 2 0.0 5.660903 -2.689721 146.003451
351 1 2 0.0 5.310346 -5.392006 147.501966
352 1 2 0.0 6.969995 -3.491837 146.415608
353 1 1 0.0 6.964122 -6.671376 146.280712
354 1 1 0.0 5.371674 -8.824878 146.207644
355 1 2 0.0 5.701609 -10.133345 145.974713
356 1 2 0.0 4.882974 -7.482927 146.552662
357 1 2 0.0 4.017484 -10.106850 148.206794
358 1 2 0.0 5.638182 -8.174027 147.149310
359 1 1 0.0 6.866521 41.102526 148.438527
360 1 1 0.0 3.196135 39.158686 147.743556
361 1 2 0.0 4.281680 37.629815 146.977170
362 1 2 0.0 2.176986 40.678966 148.463067
363 1 2 0.0 5.048172 38.004849 149.584347
364 1 2 0.0 6.141408 39.759188 148.890727
365 1 1 0.0 7.269703 36.262972 147.942808
366 1 1 0.0 3.594963 34.329052 147.461987
367 1 2 0.0 4.740480 32.813884 146.653262
368 1 2 0.0 2.495560 35.839070 148.238156
369 1 2 0.0 5.051571 33.158708 149.370042
370 1 2 0.0 6.348251 34.915858 148.533190
371 1 1 0.0 7.458952 31.436694 147.598414
372 1 1 0.0 3.869698 29.499419 147.268026
373 1 2 0.0 5.052344 27.997953 146.433088
374 1 2 0.0 2.716578 30.999174 148.082119
375 1 2 0.0 4.959077 28.318518 149.223566
376 1 2 0.0 6.399659 30.082174 148.285600
377 1 1 0.0 7.488267 26.620341 147.367150
378 1 1 0.0 4.045700 24.669786 147.143771
379 1 2 0.0 5.243556 23.182022 146.298094
380 1 2 0.0 2.862723 26.159277 147.978942
381 1 2 0.0 4.788691 23.483162 149.132187
382 1 2 0.0 6.330160 25.255993 148.123535
383 1 1 0.0 3.919613 5.351252 147.232787
384 1 2 0.0 4.951399 3.918298 146.504354
385 1 2 0.0 2.844454 6.799692 147.991840
386 1 2 0.0 3.434567 4.183476 149.242422
387 1 2 0.0 5.063217 6.012641 148.174801
388 1 1 0.0 5.763652 2.654696 147.534414
389 1 1 0.0 3.669889 0.521619 147.409090
390 1 2 0.0 4.588942 -0.897633 146.760246
391 1 2 0.0 2.687638 1.959796 148.102551
392 1 2 0.0 2.914563 -0.630184 149.398345
393 1 2 0.0 4.493142 1.217525 148.366817
394 1 1 0.0 5.020405 -2.113715 147.849621
395 1 1 0.0 3.303805 -4.308015 147.667542
396 1 2 0.0 4.063877 -5.713564 147.130937
397 1 2 0.0 2.453424 -2.880100 148.267903
398 1 2 0.0 2.294540 -5.437637 149.625016
399 1 2 0.0 3.792117 -3.569465 148.651461
400 1 1 0.0 4.080074 -6.869894 148.304236
401 1 1 0.0 2.775695 -9.137648 148.040383
402 1 2 0.0 3.299465 -10.529495 147.670606
403 1 2 0.0 2.116271 -7.719996 148.505931
404 1 2 0.0 1.530377 -10.236145 149.953645
405 1 2 0.0 2.914214 -8.345479 149.061219
406 1 1 0.0 4.139283 41.473811 0.376473
407 1 1 0.0 0.206938 39.255250 149.853903
408 1 2 0.0 1.164444 37.768471 149.177912
409 1 2 0.0 -0.669092 40.726820 0.472373
410 1 2 0.0 1.984694 38.255718 1.753954
411 1 2 0.0 3.256323 40.073881 0.937422
412 1 1 0.0 4.093428 36.622648 0.196654
413 1 1 0.0 0.232761 34.404707 149.835673
414 1 2 0.0 1.289219 32.920399 149.089822
415 1 2 0.0 -0.767005 35.877203 0.541499
416 1 2 0.0 1.640418 33.417415 1.784975
417 1 2 0.0 3.061822 35.227278 0.862544
418 1 1 0.0 3.969971 31.776301 0.071727
419 1 1 0.0 0.250549 29.554165 149.823115
420 1 2 0.0 1.374033 28.072326 149.029944
421 1 2 0.0 -0.834934 31.027585 0.589456
422 1 2 0.0 1.310022 28.578250 1.806178
423 1 2 0.0 2.834768 30.382695 0.810692
424 1 1 0.0 3.788498 26.933554 149.987837
425 1 1 0.0 0.261944 24.703622 149.815070
426 1 2 0.0 1.426035 23.224253 148.993231
427 1 2 0.0 -0.879851 26.177967 0.621168
428 1 2 0.0 0.990903 23.738385 1.819406
429 1 2 0.0 2.582393 25.539684 0.776751
430 1 1 0.0 0.253781 5.301451 149.820833
431 1 2 0.0 1.346580 3.831962 149.049326
432 1 2 0.0 -0.874236 6.779497 0.617204
433 1 2 0.0 -0.188219 4.372886 1.803449
434 1 2 0.0 1.365781 6.180491 0.787487
435 1 1 0.0 2.202370 2.761942 0.048511
436 1 1 0.0 0.237612 0.450908 149.832248
437 1 2 0.0 1.248007 -1.016110 149.118918
438 1 2 0.0 -0.826039 1.929879 0.583177
439 1 2 0.0 -0.456730 -0.470120 1.780878
440 1 2 0.0 1.008571 1.343985 0.827701
441 1 1 0.0 1.740655 -2.063414 0.162850
442 1 1 0.0 0.213909 -4.399635 149.848982
443 1 2 0.0 1.105210 -5.864183 149.219731
444 1 2 0.0 -0.754054 -2.919739 0.532356
445 1 2 0.0 -0.710764 -5.314023 1.748067
446 1 2 0.0 0.623937 -3.490818 0.887313
447 1 1 0.0 1.207449 -6.884333 0.327759
448 1 1 0.0 0.179716 -9.250178 149.873122
449 1 2 0.0 0.897321 -10.712256 149.366499
450 1 2 0.0 -0.650431 -7.769356 0.459199
451 1 2 0.0 -0.943932 -10.159222 1.700496
452 1 2 0.0 0.202259 -8.323323 0.973128
453 1 1 0.0 1.400360 41.656805 2.314418
454 1 1 0.0 -2.782259 39.182212 1.964251
455 1 2 0.0 -1.952793 37.748457 1.378655
456 1 2 0.0 -3.515169 40.593792 2.481679
457 1 2 0.0 -1.088845 38.344462 3.923560
458 1 2 0.0 0.360280 40.211992 2.984118
459 1 1 0.0 0.907752 36.830822 2.450499
460 1 1 0.0 -3.129442 34.347485 2.209359
461 1 2 0.0 -2.162042 32.905024 1.526383
462 1 2 0.0 -4.029570 35.771198 2.844842
463 1 2 0.0 -1.778521 33.550655 4.199909
464 1 2 0.0 -0.233289 35.398798 3.191898
465 1 1 0.0 0.473870 32.001194 2.545039
466 1 1 0.0 -3.368600 29.512757 2.378203
467 1 2 0.0 -2.304278 28.061591 1.626800
468 1 2 0.0 -4.386446 30.948605 3.096793
469 1 2 0.0 -2.344544 28.749174 4.388791
470 1 2 0.0 -0.736528 30.579998 3.335783
471 1 1 0.0 0.083893 27.168842 2.608523
472 1 1 0.0 -3.521811 24.678029 2.486369
473 1 2 0.0 -2.391486 23.218157 1.688368
474 1 2 0.0 -4.622426 26.126012 3.263393
475 1 2 0.0 -2.810122 23.941460 4.506624
476 1 2 0.0 -1.169502 25.756837 3.429967
477 1 1 0.0 -3.412052 5.339119 2.408879
478 1 2 0.0 -2.258238 3.844424 1.594297
479 1 2 0.0 -4.592927 6.835638 3.242567
480 1 2 0.0 -3.805141 4.656781 4.364476
481 1 2 0.0 -2.326679 6.428530 3.400173
482 1 1 0.0 -1.352332 2.975203 2.562608
483 1 1 0.0 -3.194665 0.504391 2.255406
484 1 2 0.0 -2.092929 -0.999009 1.477590
485 1 2 0.0 -4.339716 2.013045 3.063803
486 1 2 0.0 -3.819885 -0.178910 4.163412
487 1 2 0.0 -2.468747 1.587316 3.288584
488 1 1 0.0 -1.530233 -1.870310 2.476080
489 1 1 0.0 -2.875986 -4.330337 2.030422
490 1 2 0.0 -1.853457 -5.842442 1.308525
491 1 2 0.0 -3.961533 -2.809548 2.796809
492 1 2 0.0 -3.705654 -5.022606 3.871117
493 1 2 0.0 -2.534714 -3.258619 3.123166
494 1 1 0.0 -1.654031 -6.719181 2.351283
495 1 1 0.0 -2.416263 -9.165064 1.705861
496 1 2 0.0 -1.504823 -10.685875 1.062392
497 1 2 0.0 -3.417134 -7.632142 2.412467
498 1 2 0.0 -3.405553 -9.877836 3.447347
499 1 2 0.0 -2.497889 -8.110934 2.885037
500 1 1 0.0 -1.350229 41.651808 4.252364
501 1 1 0.0 -5.771456 38.937889 4.074598
502 1 2 0.0 -5.070029 37.569312 3.579397
503 1 2 0.0 -6.361246 40.276798 4.490985
504 1 2 0.0 -4.172590 38.268732 6.093167
505 1 2 0.0 -2.546781 40.172569 5.030813
506 1 1 0.0 -2.287312 36.887734 4.704344
507 1 1 0.0 -6.491644 34.156065 4.583046
508 1 2 0.0 -5.613303 32.767406 3.962944
509 1 2 0.0 -7.292135 35.518601 5.148185
510 1 2 0.0 -5.205360 33.556611 6.614843
511 1 2 0.0 -3.537129 35.429663 5.521252
512 1 1 0.0 -3.029338 32.111555 5.018351
513 1 1 0.0 -6.987750 29.374242 4.933292
514 1 2 0.0 -5.982589 27.965500 4.223656
515 1 2 0.0 -7.937957 30.760404 5.604130
516 1 2 0.0 -6.004701 28.830003 6.971404
517 1 2 0.0 -4.314264 30.673525 5.860875
518 1 1 0.0 -3.625541 27.326327 5.229210
519 1 1 0.0 -7.305566 24.592418 5.157667
520 1 2 0.0 -6.209007 23.163594 4.383506
521 1 2 0.0 -8.365001 26.002206 5.905619
522 1 2 0.0 -6.614429 24.091629 7.193843
523 1 2 0.0 -4.925548 25.907094 6.083182
524 1 1 0.0 -7.077884 5.465124 4.996926
525 1 2 0.0 -5.863057 3.955970 4.139268
526 1 2 0.0 -8.311618 6.969417 5.867931
527 1 2 0.0 -7.416115 5.036531 6.925504
528 1 2 0.0 -6.014136 6.757190 6.012859
529 1 1 0.0 -4.900466 3.294311 5.076704
530 1 1 0.0 -6.626943 0.683300 4.678565
531 1 2 0.0 -5.433864 -0.845936 3.836262
532 1 2 0.0 -7.853394 2.211220 5.544429
533 1 2 0.0 -7.174784 0.245343 6.545946
534 1 2 0.0 -5.938773 1.948148 5.749468
535 1 1 0.0 -4.792273 -1.534630 4.789309
536 1 1 0.0 -5.965881 -4.098523 4.211861
537 1 2 0.0 -4.812123 -5.647842 3.397318
538 1 2 0.0 -7.169012 -2.546977 5.061261
539 1 2 0.0 -6.689980 -4.560955 5.994167
540 1 2 0.0 -5.683785 -2.872040 5.359019
541 1 1 0.0 -4.504384 -6.374722 4.374806
542 1 1 0.0 -5.012242 -8.880347 3.538600
543 1 2 0.0 -3.906967 -10.449748 2.758285
544 1 2 0.0 -6.183836 -7.305174 4.365736
545 1 2 0.0 -5.854302 -9.389026 5.194199
546 1 2 0.0 -5.186169 -7.707286 4.796947
547 1 1 0.0 -4.112737 41.454743 6.190309
548 1 1 0.0 -8.760653 38.516485 6.184946
549 1 2 0.0 -8.187266 37.226840 5.780140
550 1 2 0.0 -9.207323 39.768206 6.500292
551 1 2 0.0 -7.266937 38.022158 8.262773
552 1 2 0.0 -5.465178 39.950461 7.077509
553 1 1 0.0 -5.491965 36.790104 6.958189
554 1 1 0.0 -9.853847 33.825909 6.956732
555 1 2 0.0 -9.064565 32.504321 6.399505
556 1 2 0.0 -10.554700 35.113328 7.451528
557 1 2 0.0 -8.640402 33.430353 9.029777
558 1 2 0.0 -6.849950 35.315791 7.850606
559 1 1 0.0 -6.539807 32.104901 7.491663
560 1 1 0.0 -10.606899 29.135333 7.488380
561 1 2 0.0 -9.660899 27.781803 6.820513
562 1 2 0.0 -11.489469 30.458449 8.111467
563 1 2 0.0 -9.670665 28.817249 9.554017
564 1 2 0.0 -7.898628 30.660265 8.385966
565 1 1 0.0 -7.339907 27.404323 7.849897
566 1 1 0.0 -11.089322 24.444758 7.828966
567 1 2 0.0 -10.026528 23.059285 7.078643
568 1 2 0.0 -12.107575 25.803571 8.547845
569 1 2 0.0 -10.422147 24.186845 9.881061
570 1 2 0.0 -8.685867 25.988515 8.736398
571 1 1 0.0 -10.743717 5.682455 7.584972
572 1 2 0.0 -9.467876 4.169213 6.684240
573 1 2 0.0 -12.030308 7.184056 8.493295
574 1 2 0.0 -11.020909 5.515849 9.486531
575 1 2 0.0 -9.696444 7.168811 8.625545
576 1 1 0.0 -8.441889 3.721560 7.590801
577 1 1 0.0 -10.059220 0.991879 7.101723
578 1 2 0.0 -8.774800 -0.553305 6.194934
579 1 2 0.0 -11.367071 2.529178 8.025055
580 1 2 0.0 -10.521106 0.807794 8.928480
581 1 2 0.0 -9.401296 2.429891 8.210351
582 1 1 0.0 -8.045273 -1.053282 7.102538
583 1 1 0.0 -9.055777 -3.698697 6.393301
584 1 2 0.0 -7.770790 -5.275823 5.486112
585 1 2 0.0 -10.376491 -2.125701 7.325714
586 1 2 0.0 -9.663332 -3.922476 8.117218
587 1 2 0.0 -8.822997 -2.326601 7.594871
588 1 1 0.0 -7.343368 -5.847070 6.398330
589 1 1 0.0 -7.608221 -8.389273 5.371339
590 1 2 0.0 -6.309111 -9.998341 4.454178
591 1 2 0.0 -8.950539 -6.780580 6.319004
592 1 2 0.0 -8.289681 -8.684759 6.941050
593 1 2 0.0 -7.862236 -7.106827 6.708856
594 1 1 0.0 -6.887720 41.056670 8.128255
595 1 1 0.0 -11.749850 37.907370 8.295293
596 1 2 0.0 -11.304502 36.712590 7.980882
597 1 2 0.0 -12.053400 39.054852 8.509598
598 1 2 0.0 -10.372582 37.593538 10.432379
599 1 2 0.0 -8.395532 39.535681 9.124204
600 1 1 0.0 -8.706656 36.530739 9.212034
601 1 1 0.0 -13.216050 33.348688 9.330418
602 1 2 0.0 -12.515826 32.109279 8.836066
603 1 2 0.0 -13.817265 34.544889 9.754871
604 1 2 0.0 -12.084188 33.163212 11.444711
605 1 2 0.0 -10.172245 35.049273 10.179959
606 1 1 0.0 -10.057877 31.975784 9.964975
607 1 1 0.0 -14.226048 28.790005 10.043469
608 1 2 0.0 -13.339210 27.505968 9.417369
609 1 2 0.0 -15.040980 30.034926 10.618804
610 1 2 0.0 -13.342818 28.704775 12.136630
611 1 2 0.0 -11.489980 30.534382 10.911058
612 1 1 0.0 -11.059436 27.399130 10.470584
613 1 1 0.0 -14.873077 24.231323 10.500265
614 1 2 0.0 -13.844049 22.902657 9.773780
615 1 2 0.0 -15.850150 25.524962 11.190071
616 1 2 0.0 -14.233499 24.223505 12.568279
617 1 2 0.0 -12.450690 25.997335 11.389614
618 1 1 0.0 -14.409549 5.996594 10.173019
619 1 2 0.0 -13.072695 4.489414 9.229211
620 1 2 0.0 -15.748999 7.485110 11.118659
621 1 2 0.0 -14.619120 6.101261 12.047559
622 1 2 0.0 -13.373322 7.667928 11.238231
623 1 1 0.0 -11.976289 4.261985 10.104897
624 1 1 0.0 -13.491497 1.437911 9.524882
625 1 2 0.0 -12.115736 -0.113897 8.553606
626 1 2 0.0 -14.880748 2.975147 10.505681
627 1 2 0.0 -13.858290 1.517503 11.311013
628 1 2 0.0 -12.855905 3.039152 10.671235
629 1 1 0.0 -11.288813 -0.419486 9.415767
630 1 1 0.0 -12.145672 -3.120771 8.574741
631 1 2 0.0 -10.729457 -4.717208 7.574905
632 1 2 0.0 -13.583970 -1.534816 9.590167
633 1 2 0.0 -12.624992 -3.095576 10.240268
634 1 2 0.0 -11.951812 -1.613619 9.830724
635 1 1 0.0 -10.170455 -5.127696 8.421853
636 1 1 0.0 -10.204200 -7.679453 7.204078
637 1 2 0.0 -8.711255 -9.320519 6.150071
638 1 2 0.0 -11.717241 -6.044780 8.272272
639 1 2 0.0 -10.710812 -7.750908 8.687901
640 1 2 0.0 -10.525421 -6.298803 8.620765
641 1 1 0.0 -9.676105 40.442612 10.066200
642 1 1 0.0 -14.739046 37.093603 10.405641
643 1 2 0.0 -14.421739 36.012737 10.181624
644 1 2 0.0 -14.899478 38.116135 10.518904
645 1 2 0.0 -13.490618 36.965245 12.601986
646 1 2 0.0 -11.338846 38.912064 11.170900
647 1 1 0.0 -11.932131 36.097589 11.465879
648 1 1 0.0 -16.578252 32.711128 11.704104
649 1 2 0.0 -15.967087 31.571658 11.272627
650 1 2 0.0 -17.079830 33.796869 12.058214
651 1 2 0.0 -15.537563 32.741547 13.859644
652 1 2 0.0 -13.504807 34.617299 12.509313
653 1 1 0.0 -13.584112 31.715081 12.438287
654 1 1 0.0 -17.845198 28.328653 12.598557
655 1 2 0.0 -17.017521 27.130578 12.014225
656 1 2 0.0 -18.592492 29.477603 13.126140
657 1 2 0.0 -17.021759 28.482926 14.719242
658 1 2 0.0 -15.088908 30.286426 13.436149
659 1 1 0.0 -14.784512 27.304549 13.091270
660 1 1 0.0 -18.656832 23.946178 13.171564
661 1 2 0.0 -17.661570 22.689499 12.468917
662 1 2 0.0 -19.592725 25.158337 13.832296
663 1 2 0.0 -18.048836 24.195938 15.255498
664 1 2 0.0 -16.220398 25.927464 14.042830
665 1 1 0.0 -18.075382 6.416278 12.761065
666 1 2 0.0 -16.677514 4.925182 11.774183
667 1 2 0.0 -19.467690 7.881272 13.744023
668 1 2 0.0 -18.210109 6.803042 14.608586
669 1 2 0.0 -17.044316 8.261881 13.850918
670 1 1 0.0 -15.503142 4.924018 12.618994
671 1 1 0.0 -16.923774 2.033803 11.948040
672 1 2 0.0 -15.456671 0.484103 10.912278
673 1 2 0.0 -18.394425 3.562006 12.986307
674 1 2 0.0 -17.185451 2.388729 13.693547
675 1 2 0.0 -16.301937 3.786633 13.132118
676 1 1 0.0 -14.522187 0.378117 11.728996
677 1 1 0.0 -15.235568 -2.348672 10.756181
678 1 2 0.0 -13.688124 -3.956977 9.663699
679 1 2 0.0 -16.791449 -0.757260 11.854620
680 1 2 0.0 -15.573827 -2.062010 12.363318
681 1 2 0.0 -15.069358 -0.719036 12.066577
682 1 1 0.0 -12.984758 -4.202317 10.445377
683 1 1 0.0 -12.800179 -6.731147 9.036817
684 1 2 0.0 -11.113399 -8.398056 7.845965
685 1 2 0.0 -14.483944 -5.076526 10.225540
686 1 2 0.0 -13.116316 -6.565242 10.434752
687 1 2 0.0 -13.174645 -5.265794 10.532674
688 1 1 0.0 -12.479337 39.589324 12.004145
689 1 1 0.0 -17.728243 36.049174 12.515988
690 1 2 0.0 -17.538975 35.105941 12.382367
691 1 2 0.0 -17.745555 36.920452 12.528210
692 1 2 0.0 -16.622723 36.110239 14.771592
693 1 2 0.0 -14.296665 38.054717 13.217595
694 1 1 0.0 -15.169551 35.471949 13.719724
695 1 1 0.0 -19.940455 31.892852 14.077791
696 1 2 0.0 -19.418348 30.875065 13.709188
697 1 2 0.0 -20.342396 32.844085 14.361558
698 1 2 0.0 -19.001826 32.144432 16.274578
699 1 2 0.0 -16.848860 34.000148 14.838667
700 1 1 0.0 -17.119392 31.308629 14.911600
701 1 1 0.0 -21.464347 27.736531 15.153646
702 1 2 0.0 -20.695832 26.644188 14.611081
703 1 2 0.0 -22.144003 28.767717 15.633477
704 1 2 0.0 -20.708406 28.136889 17.301855
705 1 2 0.0 -18.696314 29.901845 15.961240
706 1 1 0.0 -18.515732 27.110960 15.711957
707 1 1 0.0 -22.440588 23.580209 15.842863
708 1 2 0.0 -21.479091 22.413311 15.164055
709 1 2 0.0 -23.335299 24.691350 16.474522
710 1 2 0.0 -21.868699 24.095446 17.942716