
8925 atoms

2 atom types

-51.665149 51.674429 xlo xhi
-51.678608 51.675743 ylo yhi
0.000000 150.699170 zlo zhi

Masses

1 47.867000
2 15.999400

Atoms

1 1 1 0.0 15.026469 21.120614 141.814972
2 1 1 0.0 11.871249 19.744432 141.619000
3 1 2 0.0 13.083847 18.310039 140.762916
4 1 2 0.0 10.645871 21.198111 142.484106
5 1 2 0.0 12.281604 18.113074 143.617590
6 1 2 0.0 13.848250 19.820282 142.588327
7 1 1 0.0 14.905039 16.508024 141.698838
8 1 1 0.0 11.898205 15.069627 141.599969
9 1 2 0.0 13.037206 13.672667 140.795844
10 1 2 0.0 10.732795 16.489665 142.422738
11 1 2 0.0 11.974192 13.426249 143.629259
12 1 2 0.0 13.636213 15.173317 142.534535
13 1 1 0.0 14.518275 11.911899 141.770388
14 1 1 0.0 11.695677 10.394822 141.742952
15 1 2 0.0 12.735907 9.035296 141.008559
16 1 2 0.0 10.613831 11.781219 142.506726
17 1 2 0.0 11.451155 8.752806 143.793451
18 1 2 0.0 13.181319 10.541423 142.652527
19 1 1 0.0 13.860151 7.332614 142.033884
20 1 1 0.0 11.206518 21.488593 144.522738
21 1 1 0.0 8.003421 19.804222 144.349653
22 1 2 0.0 9.205486 18.344220 143.501006
23 1 2 0.0 6.795518 21.276306 145.202423
24 1 2 0.0 8.415981 18.390644 146.353584
25 1 2 0.0 10.003531 20.144103 145.311614
26 1 1 0.0 11.031851 16.762226 144.439141
27 1 1 0.0 8.021594 15.032706 144.336823
28 1 2 0.0 9.172670 13.597960 143.524173
29 1 2 0.0 6.851003 16.483101 145.163250
30 1 2 0.0 8.108798 13.614632 146.361193
31 1 2 0.0 9.761728 15.394270 145.274298
32 1 1 0.0 10.666190 12.047711 144.490645
33 1 1 0.0 7.885053 10.261189 144.433220
34 1 2 0.0 8.960683 8.851699 143.673834
35 1 2 0.0 6.775066 11.689895 145.216861
36 1 2 0.0 7.661027 8.847344 146.468246
37 1 2 0.0 9.351453 10.654892 145.356151
38 1 1 0.0 10.105195 7.345318 144.680317
39 1 1 0.0 7.383819 21.812289 147.230503
40 1 1 0.0 4.135593 19.840152 147.080307
41 1 2 0.0 5.327124 18.366091 146.239096
42 1 2 0.0 2.945164 21.319381 147.920739
43 1 2 0.0 4.549357 18.652085 149.089579
44 1 2 0.0 6.156847 20.436255 148.034901
45 1 1 0.0 7.158372 17.011745 147.179445
46 1 1 0.0 4.144983 15.010519 147.073677
47 1 2 0.0 5.308134 13.550160 146.252503
48 1 2 0.0 2.969211 16.479485 147.903762
49 1 2 0.0 4.244771 13.825056 149.093126
50 1 2 0.0 5.887693 15.622464 148.014061
51 1 1 0.0 6.816271 12.218441 147.210902
52 1 1 0.0 4.074428 10.180885 147.123488
53 1 2 0.0 5.185459 8.734229 146.339110
54 1 2 0.0 2.936300 11.639589 147.926997
55 1 2 0.0 3.874636 9.002096 149.143040
56 1 2 0.0 5.524451 10.814512 148.059774
57 1 1 0.0 6.354864 7.432541 147.326749
58 1 1 0.0 3.558503 22.093819 149.938269
59 1 1 0.0 0.267765 19.853079 149.810961
60 1 2 0.0 1.448762 18.376181 148.977186
61 1 2 0.0 -0.905189 21.328350 0.639056
62 1 2 0.0 0.681763 18.897902 1.825574
63 1 2 0.0 2.308277 20.698022 0.758188
64 1 1 0.0 3.284617 17.256807 149.919748
65 1 1 0.0 0.268373 15.002536 149.810531
66 1 2 0.0 1.443598 13.528108 148.980832
67 1 2 0.0 -0.912580 16.478732 0.644274
68 1 2 0.0 0.382069 14.056831 1.825060
69 1 2 0.0 2.014089 15.857605 0.753824
70 1 1 0.0 2.968415 12.422421 149.931159
71 1 1 0.0 0.263804 10.151993 149.813756
72 1 2 0.0 1.410235 8.680035 149.004386
73 1 2 0.0 -0.902465 11.629114 0.637133
74 1 2 0.0 0.091863 9.215173 1.817835
75 1 2 0.0 1.700196 11.018411 0.763397
76 1 1 0.0 2.608936 7.590720 149.973182
77 1 1 0.0 -0.269365 22.334211 2.646035
78 1 1 0.0 -3.600064 19.843302 2.541614
79 1 2 0.0 -2.429599 18.374724 1.715276
80 1 2 0.0 -4.755543 21.303418 3.357373
81 1 2 0.0 -3.186792 19.128228 4.561568
82 1 2 0.0 -1.542145 20.929933 3.481475
83 1 1 0.0 -0.589408 17.497518 2.660051
84 1 1 0.0 -3.608238 15.008574 2.547385
85 1 2 0.0 -2.420938 13.531291 1.709162
86 1 2 0.0 -4.794372 16.480825 3.384786
87 1 2 0.0 -3.479319 14.309775 4.556994
88 1 2 0.0 -1.859092 16.099572 3.493587
89 1 1 0.0 -0.877427 12.658839 2.651415
90 1 1 0.0 -3.546820 10.173846 2.504024
91 1 2 0.0 -2.364989 8.687858 1.669662
92 1 2 0.0 -4.741231 11.658232 3.347268
93 1 2 0.0 -3.687320 9.486076 4.492629
94 1 2 0.0 -2.121359 11.265818 3.467021
95 1 1 0.0 -1.132696 7.818127 2.619614
96 1 1 0.0 -4.099783 22.533530 5.353800
97 1 1 0.0 -7.467892 19.810594 5.272268
98 1 2 0.0 -6.307961 18.361688 4.453367
99 1 2 0.0 -8.605897 21.244009 6.075690
100 1 2 0.0 -7.056323 19.342840 7.297563
101 1 2 0.0 -5.394431 21.131827 6.204762
102 1 1 0.0 -4.463702 17.733887 5.400354
103 1 1 0.0 -7.484849 15.028771 5.284240
104 1 2 0.0 -6.285474 13.559782 4.437491
105 1 2 0.0 -8.676164 16.485812 6.125298
106 1 2 0.0 -7.339375 14.584193 7.288927
107 1 2 0.0 -5.731846 16.348401 6.233350
108 1 1 0.0 -4.721260 12.927644 5.371672
109 1 1 0.0 -7.357444 10.246947 5.194293
110 1 2 0.0 -6.140212 8.757876 4.334938
111 1 2 0.0 -8.579996 11.727615 6.057404
112 1 2 0.0 -7.462863 9.815644 7.167424
113 1 2 0.0 -5.940199 11.556966 6.170644
114 1 1 0.0 -4.870039 8.114650 5.266046
115 1 1 0.0 -7.932804 22.690887 8.061566
116 1 1 0.0 -11.335720 19.754182 8.002921
117 1 2 0.0 -10.186322 18.336767 7.191457
118 1 2 0.0 -12.456250 21.148692 8.794006
119 1 2 0.0 -10.926866 19.541128 10.033558
120 1 2 0.0 -9.248633 21.302834 8.928050
121 1 1 0.0 -8.338272 17.965819 8.140657
122 1 1 0.0 -11.361460 15.063606 8.021094
123 1 2 0.0 -10.150010 13.614249 7.165821
124 1 2 0.0 -12.557956 16.493813 8.865810
125 1 2 0.0 -11.198046 14.880918 10.020861
126 1 2 0.0 -9.604163 16.604293 8.973112
127 1 1 0.0 -8.563039 13.229538 8.091929
128 1 1 0.0 -11.168068 10.373030 7.884561
129 1 2 0.0 -9.915436 8.891731 7.000213
130 1 2 0.0 -12.418762 11.838935 8.767540
131 1 2 0.0 -11.234625 10.206150 9.842219
132 1 2 0.0 -9.756246 11.893127 8.874267
133 1 1 0.0 -8.603000 8.481788 7.912479
134 1 1 0.0 -11.768551 22.804327 10.769331
135 1 1 0.0 -15.203548 19.672641 10.733575
136 1 2 0.0 -14.064684 18.299347 9.929547
137 1 2 0.0 -16.306604 21.014999 11.512323
138 1 2 0.0 -14.798489 19.722023 12.769552
139 1 2 0.0 -13.104856 21.441265 11.651337
140 1 1 0.0 -12.213130 18.193108 10.880960
141 1 1 0.0 -15.238071 15.113958 10.757948
142 1 2 0.0 -14.014546 13.696036 9.894150
143 1 2 0.0 -16.439748 16.505036 11.606322
144 1 2 0.0 -15.055243 15.201413 12.752795
145 1 2 0.0 -13.476017 16.867632 11.712875
146 1 1 0.0 -12.402669 13.566062 10.812186
147 1 1 0.0 -14.978692 10.555276 10.574829
148 1 2 0.0 -13.690660 9.092725 9.665489
149 1 2 0.0 -16.257527 11.995073 11.477675
150 1 2 0.0 -15.002357 10.661587 12.517013
151 1 2 0.0 -13.569347 12.276758 11.577891
152 1 1 0.0 -12.331374 8.922829 10.558911
153 1 1 0.0 -15.607226 22.870579 13.477097
154 1 1 0.0 -19.071376 19.563703 13.464229
155 1 2 0.0 -17.943046 18.248420 12.667637
156 1 2 0.0 -20.156957 20.839071 14.230640
157 1 2 0.0 -18.671295 19.883840 15.505547
158 1 2 0.0 -16.963271 21.544387 14.374624
159 1 1 0.0 -16.088298 18.415407 13.621263
160 1 1 0.0 -19.114682 15.181228 13.494802
161 1 2 0.0 -17.879082 13.807341 12.622479
162 1 2 0.0 -20.321540 16.519804 14.346833
163 1 2 0.0 -18.910821 15.547978 15.484728
164 1 2 0.0 -17.347370 17.139044 14.452638
165 1 1 0.0 -16.239991 13.939795 13.532443
166 1 1 0.0 -18.789316 10.798753 13.265097
167 1 2 0.0 -17.465884 9.366261 12.330765
168 1 2 0.0 -20.096292 12.200538 14.187811
169 1 2 0.0 -18.765669 11.188244 15.191808
170 1 2 0.0 -17.379255 12.711845 14.281514
171 1 1 0.0 -16.054821 9.443279 13.205344
172 1 1 0.0 -19.449145 22.884563 16.184863
173 1 1 0.0 -19.963809 18.632180 16.361566
174 1 1 0.0 -20.074754 14.354743 16.252700
175 1 1 0.0 -19.772809 10.051683 15.851776
176 1 1 0.0 17.522489 19.100720 144.774186
177 1 1 0.0 14.221329 18.125202 144.578214
178 1 2 0.0 15.247278 16.551891 143.722130
179 1 2 0.0 13.185083 19.719230 145.443320
180 1 2 0.0 14.426838 16.455625 146.576804
181 1 2 0.0 16.192539 17.956038 145.547541
182 1 1 0.0 16.831698 14.538533 144.658052
183 1 1 0.0 13.670094 13.482932 144.559183
184 1 2 0.0 14.627639 11.955867 143.755058
185 1 2 0.0 12.689197 15.036164 145.381952
186 1 2 0.0 13.542315 11.842769 146.588473
187 1 2 0.0 15.407587 13.370943 145.493749
188 1 1 0.0 15.879646 10.025492 144.729602
189 1 1 0.0 12.891136 8.869035 144.702166
190 1 2 0.0 13.755296 7.391328 143.967773
191 1 2 0.0 11.989003 10.378553 145.465940
192 1 2 0.0 12.445475 7.269850 146.752665
193 1 2 0.0 14.383505 8.830829 145.611741
194 1 1 0.0 14.660398 5.562712 144.993098
195 1 1 0.0 13.777343 19.938166 147.481952
196 1 1 0.0 10.390570 18.662744 147.308867
197 1 2 0.0 11.402900 17.065324 146.460220
198 1 2 0.0 9.373940 20.272876 148.161637
199 1 2 0.0 10.625192 17.209004 149.312798
200 1 2 0.0 12.417356 18.752728 148.270828
201 1 1 0.0 13.019657 15.269658 147.398355
202 1 1 0.0 9.818662 13.925591 147.296037
203 1 2 0.0 10.783517 12.359536 146.483387
204 1 2 0.0 8.836377 15.509587 148.122464
205 1 2 0.0 9.729869 12.507616 149.320407
206 1 2 0.0 11.590148 14.069234 148.233512
207 1 1 0.0 12.073908 10.636526 147.449859
208 1 1 0.0 9.093227 9.207566 147.392434
209 1 2 0.0 9.986338 7.675901 146.633048
210 1 2 0.0 8.168399 10.762547 148.176075
211 1 2 0.0 8.696116 7.832267 149.427460
212 1 2 0.0 10.597053 9.416946 148.315365
213 1 1 0.0 10.935823 6.039573 147.639531
214 1 1 0.0 10.023995 20.732010 0.189717
215 1 1 0.0 6.556860 19.176609 0.039521
216 1 2 0.0 7.556999 17.566539 149.198310
217 1 2 0.0 5.558454 20.791671 0.879953
218 1 2 0.0 6.820559 17.946500 2.048793
219 1 2 0.0 8.636307 19.518235 0.994115
220 1 1 0.0 9.206748 15.996173 0.138659
221 1 1 0.0 5.969052 14.382871 0.032891
222 1 2 0.0 6.942722 12.789907 149.211717
223 1 2 0.0 4.983922 15.985936 0.862976
224 1 2 0.0 5.921506 13.194167 2.052340
225 1 2 0.0 7.774050 14.774656 0.973275
226 1 1 0.0 8.274637 11.281943 0.170116
227 1 1 0.0 5.301912 9.599017 0.082702
228 1 2 0.0 6.225556 8.026094 149.298324
229 1 2 0.0 4.352868 11.187244 0.886211
230 1 2 0.0 4.957909 8.453974 2.102254
231 1 2 0.0 6.819149 10.048504 1.018988
232 1 1 0.0 7.225051 6.589810 0.285963
233 1 1 0.0 6.262838 21.484334 2.897483
234 1 1 0.0 2.720307 19.667648 2.770175
235 1 2 0.0 3.709642 18.056065 1.936400
236 1 2 0.0 1.738752 21.276621 3.598270
237 1 2 0.0 3.013032 18.668613 4.784788
238 1 2 0.0 4.849630 20.253823 3.717402
239 1 1 0.0 5.393014 16.718298 2.878962
240 1 1 0.0 2.121198 14.854246 2.769745
241 1 2 0.0 3.105111 13.245828 1.940046
242 1 2 0.0 1.131820 16.465127 3.603488
243 1 2 0.0 2.117097 13.901740 4.784274
244 1 2 0.0 3.959239 15.486918 3.713038
245 1 1 0.0 4.481524 11.960099 2.890373
246 1 1 0.0 1.516953 10.041485 2.772970
247 1 2 0.0 2.472598 8.439078 1.963600
248 1 2 0.0 0.542260 11.651468 3.596347
249 1 2 0.0 1.230505 9.133110 4.777049
250 1 2 0.0 3.049446 10.723662 3.722611
251 1 1 0.0 3.527421 7.209916 2.932396
252 1 1 0.0 2.494060 22.196152 5.605249
253 1 1 0.0 -1.119054 20.136156 5.500828
254 1 2 0.0 -0.139142 18.534133 4.674490
255 1 2 0.0 -2.085142 21.727931 6.316587
256 1 2 0.0 -0.797364 19.375473 7.520782
257 1 2 0.0 1.057424 20.960013 6.440689
258 1 1 0.0 1.578474 17.436140 5.619265
259 1 1 0.0 -1.724922 15.339534 5.506599
260 1 2 0.0 -0.729380 13.726791 4.668376
261 1 2 0.0 -2.719929 16.947141 6.344000
262 1 2 0.0 -1.683391 14.630158 7.516208
263 1 2 0.0 0.145693 16.205900 6.452801
264 1 1 0.0 0.694419 12.670196 5.610629
265 1 1 0.0 -2.261731 10.534308 5.463238
266 1 2 0.0 -1.272693 8.913602 4.628876
267 1 2 0.0 -3.263452 12.154979 6.306482
268 1 2 0.0 -2.486189 9.869186 7.451843
269 1 2 0.0 -0.712198 11.441660 6.426235
270 1 1 0.0 -0.157387 7.898185 5.578828
271 1 1 0.0 -1.282324 22.867528 8.313014
272 1 1 0.0 -4.961249 20.581911 8.231482
273 1 2 0.0 -3.989358 19.000710 7.412581
274 1 2 0.0 -5.913298 22.145029 9.034904
275 1 2 0.0 -4.610670 20.066860 10.256777
276 1 2 0.0 -2.740343 21.636648 9.163976
277 1 1 0.0 -2.236870 18.149705 8.359568
278 1 1 0.0 -5.569292 15.838873 8.243454
279 1 2 0.0 -4.560743 14.232867 7.396705
280 1 2 0.0 -6.571321 17.432027 9.084512
281 1 2 0.0 -5.479901 15.379720 10.248141
282 1 2 0.0 -3.666583 16.931641 9.192564
283 1 1 0.0 -3.086686 13.412182 8.330886
284 1 1 0.0 -6.034080 11.077987 8.153507
285 1 2 0.0 -5.010294 9.449844 7.294152
286 1 2 0.0 -7.064185 12.698447 9.016618
287 1 2 0.0 -6.192016 10.663027 10.126638
288 1 2 0.0 -4.465741 12.202729 9.129858
289 1 1 0.0 -3.829393 8.654511 8.225260
290 1 1 0.0 -5.066481 23.497585 11.020780
291 1 1 0.0 -8.806376 21.004142 10.962135
292 1 2 0.0 -7.841044 19.455494 10.150671
293 1 2 0.0 -9.745894 22.526493 11.753220
294 1 2 0.0 -8.427000 20.742173 12.992772
295 1 2 0.0 -6.543830 22.282869 11.887264
296 1 1 0.0 -6.053036 18.858902 11.099871
297 1 1 0.0 -9.411852 16.352738 10.980308
298 1 2 0.0 -8.388893 14.764720 10.125035
299 1 2 0.0 -10.422340 17.919904 11.825024
300 1 2 0.0 -9.272280 16.151248 12.980075
301 1 2 0.0 -7.477551 17.664335 11.932326
302 1 1 0.0 -6.861664 14.186750 11.051143
303 1 1 0.0 -9.799878 11.674240 10.843775
304 1 2 0.0 -8.740002 10.049434 9.959427
305 1 2 0.0 -10.859734 13.283531 11.726754
306 1 2 0.0 -9.886557 11.516869 12.801433
307 1 2 0.0 -8.210947 13.008119 11.833481
308 1 1 0.0 -7.488320 9.480369 10.871693
309 1 1 0.0 -8.858772 24.084399 13.728545
310 1 1 0.0 -12.654609 21.401438 13.692789
311 1 2 0.0 -11.694275 19.897873 12.888761
312 1 2 0.0 -13.583235 22.869876 14.471537
313 1 2 0.0 -12.246552 21.400360 15.728766
314 1 2 0.0 -10.353351 22.897014 14.610551
315 1 1 0.0 -9.870063 19.563527 13.840174
316 1 1 0.0 -13.252494 16.882001 13.717162
317 1 2 0.0 -12.213666 15.323683 12.853364
318 1 2 0.0 -14.272961 18.410978 14.565536
319 1 2 0.0 -13.060256 16.946179 15.712009
320 1 2 0.0 -11.287139 18.404362 14.672089
321 1 1 0.0 -10.630227 14.995417 13.771400
322 1 1 0.0 -13.558732 12.326226 13.534043
323 1 2 0.0 -12.461410 10.715647 12.624703
324 1 2 0.0 -14.649741 13.913089 14.436889
325 1 2 0.0 -13.569071 12.434647 15.476227
326 1 2 0.0 -11.947360 13.860251 14.537105
327 1 1 0.0 -11.133559 10.378995 13.518125
328 1 1 0.0 -12.659804 24.624749 16.436311
329 1 1 0.0 -16.506230 21.771547 16.423443
330 1 2 0.0 -15.549176 20.326850 15.626851
331 1 2 0.0 -17.425798 23.171348 17.189854
332 1 2 0.0 -16.069638 22.039762 18.464761
333 1 2 0.0 -14.169412 23.476391 17.333838
334 1 1 0.0 -13.688013 20.263239 16.580477
335 1 1 0.0 -17.091044 17.428051 16.454016
336 1 2 0.0 -16.034790 15.911937 15.581693
337 1 2 0.0 -18.123143 18.905570 17.306047
338 1 2 0.0 -16.843403 17.766782 18.443942
339 1 2 0.0 -15.095232 19.152339 17.411852
340 1 1 0.0 -14.391898 15.840722 16.491657
341 1 1 0.0 -17.310016 13.038973 16.224311
342 1 2 0.0 -16.173848 11.453846 15.289979
343 1 2 0.0 -18.433650 14.591595 17.147025
344 1 2 0.0 -17.238394 13.422553 18.151022
345 1 2 0.0 -15.674242 14.763049 17.240728
346 1 1 0.0 -14.764089 11.355811 16.164558
347 1 1 0.0 -16.470516 25.113634 19.144077
348 1 1 0.0 -17.506987 20.957509 19.320780
349 1 1 0.0 -18.145935 16.726609 19.211914
350 1 1 0.0 -18.378329 12.419233 18.810990
351 1 1 0.0 19.749622 16.787720 147.733400
352 1 1 0.0 16.353179 16.227836 147.537428
353 1 2 0.0 17.176735 14.539750 146.681344
354 1 2 0.0 15.521967 17.937754 148.402534
355 1 2 0.0 16.350688 14.545661 149.536018
356 1 2 0.0 18.288350 15.816253 148.506755
357 1 1 0.0 18.500071 12.345946 147.617266
358 1 1 0.0 15.232213 11.689338 147.518397
359 1 2 0.0 15.993607 10.055601 146.714272
360 1 2 0.0 14.450880 13.351929 148.341166
361 1 2 0.0 14.902627 10.077558 149.547687
362 1 2 0.0 16.942528 11.363388 148.452963
363 1 1 0.0 16.997341 7.985241 147.688816
364 1 1 0.0 13.888778 7.207151 147.661380
365 1 2 0.0 14.563606 5.633939 146.926987
366 1 2 0.0 13.180200 8.816625 148.425154
367 1 2 0.0 13.248816 5.675337 149.711879
368 1 2 0.0 15.364973 6.984725 148.570955
369 1 1 0.0 15.235677 3.707447 147.952312
370 1 1 0.0 16.136751 18.081784 0.441166
371 1 1 0.0 12.618273 17.234882 0.268081
372 1 2 0.0 13.425333 15.524555 149.419434
373 1 2 0.0 11.808517 18.958354 1.120851
374 1 2 0.0 12.671358 15.763287 2.272012
375 1 2 0.0 14.640634 17.073587 1.230042
376 1 1 0.0 14.807673 13.542775 0.357569
377 1 1 0.0 11.465061 12.604784 0.255251
378 1 2 0.0 12.228888 10.931453 149.442601
379 1 2 0.0 10.686155 14.298075 1.081678
380 1 2 0.0 11.201633 11.208667 2.279621
381 1 2 0.0 13.240715 12.528303 1.192726
382 1 1 0.0 13.296349 9.062121 0.409073
383 1 1 0.0 10.161864 8.012651 0.351648
384 1 2 0.0 10.858750 6.382315 149.592262
385 1 2 0.0 9.436387 9.670045 1.135289
386 1 2 0.0 9.597760 6.697002 2.386674
387 1 2 0.0 11.680039 8.034494 1.274579
388 1 1 0.0 11.598638 4.641150 0.598745
389 1 1 0.0 12.510351 19.333594 3.148931
390 1 1 0.0 8.877511 18.218797 2.998735
391 1 2 0.0 9.670910 16.497425 2.157524
392 1 2 0.0 8.086449 19.944908 3.839167
393 1 2 0.0 8.987099 16.965523 5.008007
394 1 2 0.0 10.983241 18.300702 3.953329
395 1 1 0.0 11.113845 14.735136 3.097873
396 1 1 0.0 7.701525 13.534514 2.992105
397 1 2 0.0 8.470773 11.833390 2.170931
398 1 2 0.0 6.922153 15.247080 3.822190
399 1 2 0.0 7.507374 12.360809 5.011554
400 1 2 0.0 9.541113 13.700127 3.932489
401 1 1 0.0 9.606026 10.172321 3.129330
402 1 1 0.0 6.448037 8.869849 3.041916
403 1 2 0.0 7.170121 7.194797 2.257538
404 1 2 0.0 5.702639 10.563228 3.845425
405 1 2 0.0 5.965102 7.776123 5.061468
406 1 2 0.0 8.009206 9.128299 3.978202
407 1 1 0.0 7.984367 5.645958 3.245177
408 1 1 0.0 8.871067 20.545168 5.856697
409 1 1 0.0 5.131105 19.180412 5.729389
410 1 2 0.0 5.913597 17.458874 4.895614
411 1 2 0.0 4.356012 20.898398 6.557484
412 1 2 0.0 5.298066 18.152850 7.744002
413 1 2 0.0 7.316565 19.498824 6.676616
414 1 1 0.0 7.418654 15.923243 5.838176
415 1 1 0.0 3.941474 14.478014 5.728959
416 1 2 0.0 4.718975 12.760288 4.899260
417 1 2 0.0 3.158853 16.198860 6.562702
418 1 2 0.0 3.819638 13.533324 7.743488
419 1 2 0.0 5.843634 14.878580 6.672252
420 1 1 0.0 5.925863 11.314247 5.849587
421 1 1 0.0 2.746824 9.776887 5.732184
422 1 2 0.0 3.497018 8.068621 4.922814
423 1 2 0.0 1.978665 11.495026 6.555561
424 1 2 0.0 2.350264 8.910898 7.736263
425 1 2 0.0 4.351902 10.264356 6.681825
426 1 1 0.0 4.391776 6.718473 5.891610
427 1 1 0.0 5.219214 21.717489 8.564463
428 1 1 0.0 1.379128 20.120017 8.460042
429 1 2 0.0 2.153450 18.409131 7.633704
430 1 2 0.0 0.617257 21.819024 9.275801
431 1 2 0.0 1.604301 19.325397 10.479996
432 1 2 0.0 3.640766 20.668457 9.399903
433 1 1 0.0 3.722134 17.107199 8.578479
434 1 1 0.0 0.184863 15.435106 8.465813
435 1 2 0.0 0.973370 13.711649 7.627590
436 1 2 0.0 -0.603748 17.153399 9.303214
437 1 2 0.0 0.138370 14.726037 10.475422
438 1 2 0.0 2.148241 16.063546 9.412015
439 1 1 0.0 2.255610 12.487125 8.569843
440 1 1 0.0 -0.941936 10.733119 8.422452
441 1 2 0.0 -0.160867 9.002564 7.588090
442 1 2 0.0 -1.735594 12.465205 9.265696
443 1 2 0.0 -1.246906 10.100851 10.411057
444 1 2 0.0 0.707891 11.441927 9.385449
445 1 1 0.0 0.820337 7.857045 8.538042
446 1 1 0.0 1.554812 22.850618 11.272228
447 1 1 0.0 -2.378476 21.037393 11.190696
448 1 2 0.0 -1.609538 19.348161 10.371795
449 1 2 0.0 -3.129959 22.706227 11.994118
450 1 2 0.0 -2.094266 20.482949 13.215991
451 1 2 0.0 -0.044203 21.809449 12.123190
452 1 1 0.0 0.024287 18.287012 11.318782
453 1 1 0.0 -3.568273 16.405924 11.202668
454 1 2 0.0 -2.766025 14.687545 10.355919
455 1 2 0.0 -4.365639 18.110743 12.043726
456 1 2 0.0 -3.536337 15.939242 13.207355
457 1 2 0.0 -1.545055 17.255060 12.151778
458 1 1 0.0 -1.404747 13.690908 11.290100
459 1 1 0.0 -4.618122 11.739031 11.112721
460 1 2 0.0 -3.803491 9.996802 10.253366
461 1 2 0.0 -5.439973 13.474419 11.975832
462 1 2 0.0 -4.826151 11.346782 13.085852
463 1 2 0.0 -2.922755 12.661238 12.089072
464 1 1 0.0 -2.729985 9.061567 11.184474
465 1 1 0.0 -2.122412 23.943707 13.979994
466 1 1 0.0 -6.141896 21.931789 13.921349
467 1 2 0.0 -5.375443 20.275671 13.109885
468 1 2 0.0 -6.885985 23.558619 14.712434
469 1 2 0.0 -5.797821 21.624925 15.951986
470 1 2 0.0 -3.738610 22.920967 14.846478
471 1 1 0.0 -3.674915 19.462591 14.059085
472 1 1 0.0 -7.317818 17.390933 13.939522
473 1 2 0.0 -6.499047 15.688623 13.084249
474 1 2 0.0 -8.126791 19.071010 14.784238
475 1 2 0.0 -7.204228 17.173732 15.939289
476 1 2 0.0 -5.236194 18.453313 14.891540
477 1 1 0.0 -5.054994 14.926264 14.010357
478 1 1 0.0 -8.281306 12.796307 13.802989
479 1 2 0.0 -7.430451 11.052925 12.918641
480 1 2 0.0 -9.134061 14.524288 14.685968
481 1 2 0.0 -8.386777 12.650860 15.760647
482 1 2 0.0 -6.539648 13.923498 14.792695
483 1 1 0.0 -6.258730 10.333471 13.830907
484 1 1 0.0 -5.813053 24.994890 16.687759
485 1 1 0.0 -9.911482 22.801824 16.652003
486 1 2 0.0 -9.144414 21.191062 15.847975
487 1 2 0.0 -10.651428 24.373810 17.430751
488 1 2 0.0 -9.506690 22.750303 18.687980
489 1 2 0.0 -7.442971 24.001402 17.569765
490 1 1 0.0 -7.375536 20.633739 16.799388
491 1 1 0.0 -11.063554 18.390984 16.676376
492 1 2 0.0 -10.225365 16.716184 15.812578
493 1 2 0.0 -11.887152 20.034399 17.524750
494 1 2 0.0 -10.864856 18.430903 18.671223
495 1 2 0.0 -8.925057 19.658673 17.631303
496 1 1 0.0 -8.694660 16.194663 16.730614
497 1 1 0.0 -11.930710 13.908027 16.493257
498 1 2 0.0 -11.040936 12.174134 15.583917
499 1 2 0.0 -12.817152 15.617605 17.396103
500 1 2 0.0 -11.927565 14.016895 18.435441
501 1 2 0.0 -10.142037 15.231055 17.496319
502 1 1 0.0 -9.764896 11.675893 16.477339
503 1 1 0.0 -9.518113 26.001046 19.395525
504 1 1 0.0 -13.687791 23.645300 19.382657
505 1 2 0.0 -12.916700 22.093360 18.586065
506 1 2 0.0 -14.427235 25.148055 20.149068
507 1 2 0.0 -13.221387 23.857478 21.423975
508 1 2 0.0 -11.158119 25.048144 20.293052
509 1 1 0.0 -11.077682 21.800126 19.539691
510 1 1 0.0 -14.805140 19.407436 19.413230
511 1 2 0.0 -13.944439 17.772362 18.540907
512 1 2 0.0 -15.646643 21.001226 20.265261
513 1 2 0.0 -14.517519 19.712950 21.403156
514 1 2 0.0 -12.611453 20.871735 20.371066
515 1 1 0.0 -12.322958 17.498569 19.450871
516 1 1 0.0 -15.565089 15.079107 19.183525
517 1 2 0.0 -14.633621 13.365668 18.249193
518 1 2 0.0 -16.488139 16.758741 20.106239
519 1 2 0.0 -15.446592 15.450888 21.110236
520 1 2 0.0 -13.728705 16.587711 20.199942
521 1 1 0.0 -13.246799 13.094086 19.123772
522 1 1 0.0 -13.239142 26.957329 22.103291
523 1 1 0.0 -14.781516 22.961240 22.279994
524 1 1 0.0 -15.938662 18.841800 22.171128
525 1 1 0.0 -16.701829 14.596206 21.770204
526 1 1 0.0 21.673692 14.217109 0.692614
527 1 1 0.0 18.234086 14.081450 0.496642
528 1 2 0.0 18.842611 12.304494 149.640558
529 1 2 0.0 17.620662 15.881018 1.361748
530 1 2 0.0 18.023633 12.412489 2.495232
531 1 2 0.0 20.103521 13.433765 1.465969
532 1 1 0.0 19.884556 9.963907 0.576480
533 1 1 0.0 16.560589 9.716369 0.477611
534 1 2 0.0 17.114149 8.001029 149.673486
535 1 2 0.0 15.990811 11.462806 1.300380
536 1 2 0.0 16.034255 8.157704 2.506901
537 1 2 0.0 18.217482 9.181459 1.412177
538 1 1 0.0 17.854206 5.822455 0.648030
539 1 1 0.0 14.673293 5.434671 0.620594
540 1 2 0.0 15.148434 3.790096 149.886201
541 1 2 0.0 14.169144 7.119403 1.384368
542 1 2 0.0 13.848851 3.993734 2.671093
543 1 2 0.0 16.110661 5.031438 1.530169
544 1 1 0.0 15.577161 1.795292 0.911526
545 1 1 0.0 18.248537 15.947932 3.400380
546 1 1 0.0 14.652345 15.542546 3.227295
547 1 2 0.0 15.241752 13.745559 2.378648
548 1 2 0.0 14.061889 17.352912 4.080065
549 1 2 0.0 14.523078 14.075679 5.231226
550 1 2 0.0 16.639247 15.132448 4.189256
551 1 1 0.0 16.368462 11.608074 3.316783
552 1 1 0.0 12.935525 11.090555 3.214465
553 1 2 0.0 13.486605 9.335624 2.401815
554 1 2 0.0 12.371950 12.867156 4.040892
555 1 2 0.0 12.501505 9.737719 5.238835
556 1 2 0.0 14.688099 10.795121 4.151940
557 1 1 0.0 14.314754 7.348656 3.368287
558 1 1 0.0 11.074565 6.694779 3.310862
559 1 2 0.0 11.564532 4.990791 2.551476
560 1 2 0.0 10.559571 8.429153 4.094503
561 1 2 0.0 10.352125 5.458969 5.345888
562 1 2 0.0 12.583792 6.528750 4.233793
563 1 1 0.0 12.083469 3.171507 3.557959
564 1 1 0.0 14.804732 17.638498 6.108145
565 1 1 0.0 11.061934 16.981412 5.957949
566 1 2 0.0 11.636419 15.175154 5.116738
567 1 2 0.0 10.490355 18.792085 6.798381
568 1 2 0.0 11.015729 15.724205 7.967221
569 1 2 0.0 13.161634 16.802341 6.912543
570 1 1 0.0 12.850396 13.247984 6.057087
571 1 1 0.0 9.315815 12.478467 5.951319
572 1 2 0.0 9.868838 10.695287 5.130145
573 1 2 0.0 8.754161 14.274253 6.781404
574 1 2 0.0 8.978039 11.337772 7.970768
575 1 2 0.0 11.161765 12.415366 6.891703
576 1 1 0.0 10.790009 8.906602 6.088544
577 1 1 0.0 7.495214 8.004571 6.001130
578 1 2 0.0 8.004658 6.253094 5.216752
579 1 2 0.0 6.964902 9.777117 6.804639
580 1 2 0.0 6.880759 6.978946 8.020682
581 1 2 0.0 9.076360 8.068018 6.937416
582 1 1 0.0 8.621161 4.615467 6.204391
583 1 1 0.0 11.343168 19.290731 8.815911
584 1 1 0.0 7.463165 18.398848 8.688603
585 1 2 0.0 8.026806 16.593773 7.854828
586 1 2 0.0 6.906428 20.199483 9.516698
587 1 2 0.0 7.501800 17.358528 10.703216
588 1 2 0.0 9.671225 18.444611 9.635830
589 1 1 0.0 9.330452 14.883842 8.797390
590 1 1 0.0 5.701266 13.879614 8.688173
591 1 2 0.0 6.260426 12.078938 7.858474
592 1 2 0.0 5.137412 15.684018 9.521916
593 1 2 0.0 5.463566 12.957235 10.702702
594 1 2 0.0 7.638358 14.041926 9.631466
595 1 1 0.0 7.279267 10.494774 8.808801
596 1 1 0.0 3.934544 9.362261 8.691398
597 1 2 0.0 4.467776 7.574349 7.882028
598 1 2 0.0 3.384707 11.162191 9.514775
599 1 2 0.0 3.433958 8.551946 10.695477
600 1 2 0.0 5.587577 9.647541 9.641039
601 1 1 0.0 5.188739 6.123934 8.850824
602 1 1 0.0 7.864278 20.905565 11.523677
603 1 1 0.0 3.856147 19.795131 11.419256
604 1 2 0.0 4.412997 18.001636 10.592918
605 1 2 0.0 3.310183 21.575299 12.235015
606 1 2 0.0 3.981346 18.978768 13.439210
607 1 2 0.0 6.168240 20.059738 12.359117
608 1 1 0.0 5.808677 16.515745 11.537693
609 1 1 0.0 2.091812 15.293822 11.425027
610 1 2 0.0 2.661184 13.486099 10.586804
611 1 2 0.0 1.521697 17.096433 12.262428
612 1 2 0.0 1.958007 14.595942 13.434636
613 1 2 0.0 4.117825 15.674692 12.371229
614 1 1 0.0 3.782188 12.112437 11.529057
615 1 1 0.0 0.392313 10.767227 11.381666
616 1 2 0.0 0.953427 8.953380 10.547304
617 1 2 0.0 -0.181103 12.584150 12.224910
618 1 2 0.0 0.011511 10.177516 13.370271
619 1 2 0.0 2.117118 11.266616 12.344663
620 1 1 0.0 1.785473 7.695336 11.497256
621 1 1 0.0 4.368089 22.483060 14.231442
622 1 1 0.0 0.240797 21.170051 14.149910
623 1 2 0.0 0.794981 19.398711 13.331009
624 1 2 0.0 -0.298590 22.918993 14.953332
625 1 2 0.0 0.454275 20.584722 16.175205
626 1 2 0.0 2.652614 21.647578 15.082404
627 1 1 0.0 2.285072 18.143700 14.277996
628 1 1 0.0 -1.512498 16.721222 14.161882
629 1 2 0.0 -0.928863 14.916839 13.315133
630 1 2 0.0 -2.092966 18.511545 15.002940
631 1 2 0.0 -1.538506 16.254172 16.166569
632 1 2 0.0 0.600182 17.313696 15.110992
633 1 1 0.0 0.298749 13.759543 14.249314
634 1 1 0.0 -3.131297 12.219938 14.071935
635 1 2 0.0 -2.538323 10.390357 13.212580
636 1 2 0.0 -3.732282 14.043623 14.935046
637 1 2 0.0 -3.386227 11.856419 16.045066
638 1 2 0.0 -1.334919 12.925457 15.048286
639 1 1 0.0 -1.588684 9.329572 14.143688
640 1 1 0.0 0.854227 24.022407 16.939208
641 1 1 0.0 -3.383167 22.522887 16.880563
642 1 2 0.0 -2.827354 20.784712 16.069099
643 1 2 0.0 -3.920409 24.229233 17.671648
644 1 2 0.0 -3.079672 22.175836 18.911200
645 1 2 0.0 -0.876021 23.207338 17.805692
646 1 1 0.0 -1.240402 19.767621 17.018299
647 1 1 0.0 -5.111489 18.162260 16.898736
648 1 2 0.0 -4.509471 16.371779 16.043463
649 1 2 0.0 -5.706534 19.929466 17.743452
650 1 2 0.0 -5.025625 17.932681 18.898503
651 1 2 0.0 -2.914486 18.959121 17.850754
652 1 1 0.0 -3.170754 15.436730 16.969571
653 1 1 0.0 -6.635656 13.722010 16.762203
654 1 2 0.0 -6.006877 11.886807 15.877855
655 1 2 0.0 -7.268224 15.542167 17.645182
656 1 2 0.0 -6.758301 13.590719 18.719861
657 1 2 0.0 -4.767997 14.625218 17.751909
658 1 1 0.0 -4.933099 11.028004 16.790121
659 1 1 0.0 -2.678132 25.521829 19.646973
660 1 1 0.0 -7.016262 23.852311 19.611217
661 1 2 0.0 -6.454230 22.159069 18.807189
662 1 2 0.0 -7.556173 25.503721 20.389965
663 1 2 0.0 -6.620944 23.751138 21.647194
664 1 2 0.0 -4.418376 24.737483 20.528979
665 1 1 0.0 -4.767831 21.387321 19.758602
666 1 1 0.0 -8.704842 19.617754 19.635590
667 1 2 0.0 -8.080152 17.852172 18.771792
668 1 2 0.0 -9.318931 21.350387 20.483964
669 1 2 0.0 -8.502733 19.632799 21.630437
670 1 2 0.0 -6.426018 20.611316 20.590517
671 1 1 0.0 -6.625672 17.145399 19.689828
672 1 1 0.0 -10.119608 15.276406 19.452471
673 1 2 0.0 -9.451037 13.445807 18.543131
674 1 2 0.0 -10.787880 17.082465 20.355317
675 1 2 0.0 -10.103027 15.384050 21.394655
676 1 2 0.0 -8.181083 16.368135 20.455533
677 1 1 0.0 -8.246389 12.793621 19.436553
678 1 1 0.0 -6.230365 26.978351 22.354739
679 1 1 0.0 -10.659310 25.156211 22.341871
680 1 2 0.0 -10.086014 23.520842 21.545279
681 1 2 0.0 -11.207283 26.738859 23.108282
682 1 2 0.0 -10.170252 25.309096 24.383189
683 1 2 0.0 -7.975602 26.235528 23.252266
684 1 1 0.0 -8.297361 23.002486 22.498905
685 1 1 0.0 -12.292047 21.089009 22.372444
686 1 2 0.0 -11.640108 19.360065 21.500121
687 1 2 0.0 -12.930040 22.774612 23.224475
688 1 2 0.0 -11.968860 21.356618 24.362370
689 1 2 0.0 -9.934149 22.270850 23.330280
690 1 1 0.0 -10.064919 18.887895 22.410085
691 1 1 0.0 -13.581312 16.887849 22.142739
692 1 2 0.0 -12.868837 15.072392 21.208407
693 1 2 0.0 -14.289613 18.668719 23.065453
694 1 2 0.0 -13.417757 17.242127 24.069450
695 1 2 0.0 -11.572497 18.157831 23.159156
696 1 1 0.0 -11.526234 14.631429 22.082986
697 1 1 0.0 -9.804611 28.387358 25.062505
698 1 1 0.0 -11.829219 24.612626 25.239208
699 1 1 0.0 -13.486807 20.667860 25.130342
700 1 1 0.0 -14.769035 16.549197 24.729418
701 1 1 0.0 23.265174 11.428333 3.651828
702 1 1 0.0 19.835186 11.718981 3.455856
703 1 2 0.0 20.219343 9.880421 2.599772
704 1 2 0.0 19.448964 13.580584 4.320962
705 1 2 0.0 19.420001 10.088846 5.454446
706 1 2 0.0 21.610200 10.845131 4.425183
707 1 1 0.0 20.963908 7.428969 3.535694
708 1 1 0.0 17.634839 7.594299 3.436825
709 1 2 0.0 17.972070 5.823680 2.632700
710 1 2 0.0 17.285359 9.397783 4.259594
711 1 2 0.0 16.919833 6.112669 5.466115
712 1 2 0.0 19.212884 6.858639 4.371391
713 1 1 0.0 18.437095 3.570321 3.607244
714 1 1 0.0 15.232642 3.578795 3.579808
715 1 2 0.0 15.500806 1.888092 2.845415
716 1 2 0.0 14.940659 5.312933 4.343582
717 1 2 0.0 14.236371 2.250846 5.630307
718 1 2 0.0 16.609128 3.000942 4.489383
719 1 1 0.0 15.679610 -0.144413 3.870740
720 1 1 0.0 20.080295 13.569356 6.359594
721 1 1 0.0 16.461574 13.611706 6.186509