
4 atoms

1 atom types

0.000000 4.104356 xlo xhi
0.000000 4.104356 ylo yhi
0.000000 4.104356 zlo zhi

Masses

1 107.868200

Atoms

1 1 1 0.0 0.000000 0.000000 0.000000
2 1 1 0.0 0.000000 2.052178 2.052178
3 1 1 0.0 2.052178 0.000000 2.052178
4 1 1 0.0 2.052178 2.052178 0.000000
