
6 atoms

2 atom types

0.000000 4.599837 xlo xhi
0.000000 4.599837 ylo yhi
0.000000 2.959214 zlo zhi

Masses

1 47.867000
2 15.999400

Atoms

1 1 1 0.0 0.000000 0.000000 1.479607
2 1 1 0.0 2.299919 2.299919 0.000000
3 1 2 0.0 0.900090 3.699747 0.000000
4 1 2 0.0 3.699747 0.900090 0.000000
5 1 2 0.0 3.200009 3.200009 1.479607
6 1 2 0.0 1.399829 1.399829 1.479607
