
6 atoms

2 atom types

0.000000 4.867707 xlo xhi
0.000000 4.867707 ylo yhi
0.000000 3.258800 zlo zhi

Masses

1 91.224000
2 15.999400

Atoms

1 1 1 0.0 0.000000 0.000000 0.000000
2 1 1 0.0 2.433854 2.433854 1.629400
3 1 2 0.0 0.946295 0.946295 1.629400
4 1 2 0.0 3.921412 3.921412 1.629400
5 1 2 0.0 1.487558 3.380149 0.000000
6 1 2 0.0 3.380149 1.487558 0.000000
