
4 atoms

1 atom types

0.000000 4.171288 xlo xhi
0.000000 4.171288 ylo yhi
0.000000 4.171288 zlo zhi

Masses

1 196.967000

Atoms

1 1 1 0.0 0.000000 0.000000 0.000000
2 1 1 0.0 0.000000 2.085644 2.085644
3 1 1 0.0 2.085644 0.000000 2.085644
4 1 1 0.0 2.085644 2.085644 0.000000
