
55104 atoms

1 atom types

-63.127775 63.125431 xlo xhi
-63.126684 63.128705 ylo yhi
0.000000 200.699699 zlo zhi

Masses

1 196.967000

Atoms

1 1 1 0.0 25.566020 46.092418 176.601330
2 1 1 0.0 30.419527 42.761759 176.867157
3 1 1 0.0 27.507147 45.068619 179.665159
4 1 1 0.0 26.402485 45.284864 175.835776
5 1 1 0.0 31.369717 42.356502 180.772618
6 1 1 0.0 35.746392 38.420192 181.038445
7 1 1 0.0 33.160421 41.087833 183.836447
8 1 1 0.0 32.093487 41.446571 180.007064
9 1 1 0.0 36.635479 37.894248 184.943906
10 1 1 0.0 40.460270 33.419787 185.209733
11 1 1 0.0 38.245052 36.402466 188.007735
12 1 1 0.0 37.234143 36.897544 184.178352
13 1 1 0.0 41.273010 32.782176 189.115194
14 1 1 0.0 44.480328 27.846294 189.381021
15 1 1 0.0 42.673851 31.092861 192.179023
16 1 1 0.0 41.736301 31.715790 188.349640
17 1 1 0.0 45.202782 27.107949 193.286482
18 1 1 0.0 47.737628 21.795287 193.552309
19 1 1 0.0 46.370869 25.250070 196.350311
20 1 1 0.0 45.522756 25.990168 192.520928
21 1 1 0.0 48.357408 20.968869 197.457770
22 1 1 0.0 50.176314 15.370530 197.723597
23 1 1 0.0 49.272711 18.974286 0.521599
24 1 1 0.0 48.528578 19.818861 196.692216
25 1 1 0.0 50.682792 14.470211 1.629058
26 1 1 0.0 51.754566 8.682196 1.894885
27 1 1 0.0 51.329614 12.373127 4.692887
28 1 1 0.0 50.702223 13.307697 0.863504
29 1 1 0.0 52.139057 7.723415 5.800346
30 1 1 0.0 52.445321 1.844978 6.066173
31 1 1 0.0 52.506307 5.559791 8.864175
32 1 1 0.0 52.006415 6.568329 5.034792
33 1 1 0.0 52.701231 0.844176 9.971634
34 1 1 0.0 52.236733 -5.023878 10.237461
35 1 1 0.0 52.782611 -1.348885 13.035463
36 1 1 0.0 52.418791 -0.283674 9.206080
37 1 1 0.0 52.359674 -6.049539 14.142922
38 1 1 0.0 51.132379 -11.806584 14.408749
39 1 1 0.0 52.153789 -8.234430 17.206751
40 1 1 0.0 51.932280 -7.130812 13.377368
41 1 1 0.0 51.120243 -12.839515 18.314210
42 1 1 0.0 49.151197 -18.386828 18.580037
43 1 1 0.0 50.630623 -14.978770 21.378039
44 1 1 0.0 50.555223 -13.855669 17.548656
45 1 1 0.0 49.004192 -19.409317 22.485498
46 1 1 0.0 46.327161 -24.651771 22.751325
47 1 1 0.0 48.239233 -21.466251 25.549327
48 1 1 0.0 48.311235 -20.342927 21.719944
49 1 1 0.0 46.047807 -25.646283 26.656786
50 1 1 0.0 42.708697 -30.493980 26.922613
51 1 1 0.0 45.020627 -27.585624 29.720615
52 1 1 0.0 45.238797 -26.481340 25.891232
53 1 1 0.0 42.301785 -31.443463 30.828074
54 1 1 0.0 38.357856 -35.813273 31.093901
55 1 1 0.0 41.029999 -33.231953 33.891903
56 1 1 0.0 41.390595 -32.165646 30.062520
57 1 1 0.0 37.830364 -36.701443 34.999362
58 1 1 0.0 33.349247 -40.518432 35.265189
59 1 1 0.0 36.335780 -38.308415 38.063191
60 1 1 0.0 36.832619 -37.298369 34.233808
61 1 1 0.0 32.710220 -41.330060 39.170650
62 1 1 0.0 27.768758 -44.528774 39.436477
63 1 1 0.0 31.018468 -42.727956 42.234479
64 1 1 0.0 31.643029 -41.791493 38.405096
65 1 1 0.0 27.029155 -45.249941 43.341938
66 1 1 0.0 21.712085 -47.775527 43.607765
67 1 1 0.0 25.169244 -46.414789 46.405767
68 1 1 0.0 25.910819 -45.567967 42.576384
69 1 1 0.0 20.884589 -48.393867 47.513226
70 1 1 0.0 15.283089 -50.203016 47.779053
71 1 1 0.0 18.888414 -49.305693 50.577055
72 1 1 0.0 19.734285 -48.563033 46.747672
73 1 1 0.0 14.381889 -50.707925 51.684514
74 1 1 0.0 8.592016 -51.769614 51.950341
75 1 1 0.0 12.283682 -51.351092 54.748343
76 1 1 0.0 13.219343 -50.725330 50.918960
77 1 1 0.0 7.632566 -52.152433 55.855802
78 1 1 0.0 1.753605 -52.448456 56.121629
79 1 1 0.0 5.468306 -52.515913 58.919631
80 1 1 0.0 6.477713 -52.017780 55.090248
81 1 1 0.0 0.752359 -52.702622 60.027090
82 1 1 0.0 -5.114878 -52.227901 60.292917
83 1 1 0.0 -1.440841 -52.780181 63.090919
84 1 1 0.0 -0.374997 -52.418218 59.261536
85 1 1 0.0 -6.140751 -52.349055 64.198378
86 1 1 0.0 -11.895649 -51.111732 64.464205
87 1 1 0.0 -8.325280 -52.139364 67.262207
88 1 1 0.0 -7.221277 -51.919778 63.432824
89 1 1 0.0 -12.928557 -51.097796 68.369666
90 1 1 0.0 -18.472431 -49.119089 68.635493
91 1 1 0.0 -15.066956 -50.604450 71.433495
92 1 1 0.0 -13.943726 -50.531007 67.604112
93 1 1 0.0 -19.494662 -48.970302 72.540954
94 1 1 0.0 -24.732445 -46.284142 72.806781
95 1 1 0.0 -21.550261 -48.201761 75.604783
96 1 1 0.0 -20.427064 -48.275721 71.775400
97 1 1 0.0 -25.726469 -46.003056 76.712242
98 1 1 0.0 -30.568341 -42.655506 76.978069
99 1 1 0.0 -27.664017 -44.972499 79.776071
100 1 1 0.0 -26.560115 -45.192593 75.946688
101 1 1 0.0 -31.517113 -42.246940 80.883530
102 1 1 0.0 -35.880046 -38.295404 81.149357
103 1 1 0.0 -33.303386 -40.972040 83.947359
104 1 1 0.0 -32.237708 -41.334493 80.117976
105 1 1 0.0 -36.767296 -37.766365 85.054818
106 1 1 0.0 -40.576472 -33.278605 85.320645
107 1 1 0.0 -38.371661 -36.268984 88.118647
108 1 1 0.0 -37.362483 -36.767581 84.289264
109 1 1 0.0 -41.386985 -32.638165 89.226106
110 1 1 0.0 -44.577085 -27.691138 89.491933
111 1 1 0.0 -42.781931 -30.943980 92.289935
112 1 1 0.0 -41.846558 -31.570172 88.460552
113 1 1 0.0 -45.296962 -26.950280 93.397394
114 1 1 0.0 -47.813281 -21.628818 93.663221
115 1 1 0.0 -46.458569 -25.088342 96.461223
116 1 1 0.0 -45.613040 -25.831391 92.631840
117 1 1 0.0 -48.430178 -20.800245 97.568682
118 1 1 0.0 -50.229566 -15.195602 97.834509
119 1 1 0.0 -49.338525 -18.802485 100.632511
120 1 1 0.0 -48.597340 -19.649648 96.803128
121 1 1 0.0 -50.732904 -14.293524 101.739970
122 1 1 0.0 -51.784504 -8.501810 102.005797
123 1 1 0.0 -51.372415 -12.194199 104.803799
124 1 1 0.0 -50.748284 -13.130949 100.974416
125 1 1 0.0 -52.165652 -7.541695 105.911258
126 1 1 0.0 -52.451431 -1.662226 106.177085
127 1 1 0.0 -52.525361 -5.376805 108.975087
128 1 1 0.0 -52.028986 -6.387078 105.145704
129 1 1 0.0 -52.703853 -0.660539 110.082546
130 1 1 0.0 -52.218911 5.205861 110.348373
131 1 1 0.0 -52.777591 1.532792 113.146375
132 1 1 0.0 -52.417485 0.466320 109.316992
133 1 1 0.0 -52.338277 6.231944 114.253834
134 1 1 0.0 -51.090930 11.984678 114.519661
135 1 1 0.0 -52.124780 8.416105 117.317663
136 1 1 0.0 -51.907118 7.311721 113.488280
137 1 1 0.0 -51.075195 13.017560 118.425122
138 1 1 0.0 -49.086832 18.557978 118.690949
139 1 1 0.0 -50.578124 15.155096 121.488951
140 1 1 0.0 -50.506638 14.031740 117.659568
141 1 1 0.0 -48.936265 19.579949 122.596410
142 1 1 0.0 -46.240983 24.813043 122.862237
143 1 1 0.0 -48.164143 21.634205 125.660239
144 1 1 0.0 -48.240059 20.511139 121.830856
145 1 1 0.0 -45.958166 25.806577 126.767698
146 1 1 0.0 -42.602185 30.642609 127.033525
147 1 1 0.0 -44.924235 27.742326 129.831527
148 1 1 0.0 -45.146251 26.638810 126.002144
149 1 1 0.0 -42.191967 31.590668 130.938986
150 1 1 0.0 -38.232835 35.946710 131.204813
151 1 1 0.0 -40.913956 33.374717 134.002815
152 1 1 0.0 -41.278266 32.309672 130.173432
153 1 1 0.0 -37.702252 36.833036 135.110274
154 1 1 0.0 -33.207862 40.634389 135.376101
155 1 1 0.0 -36.202077 38.434790 138.174103
156 1 1 0.0 -36.702433 37.426483 134.344720
157 1 1 0.0 -32.566011 41.443785 139.281562
158 1 1 0.0 -27.613434 44.625261 139.547389
159 1 1 0.0 -30.869398 42.835777 142.345391
160 1 1 0.0 -31.497219 41.901496 138.516008
161 1 1 0.0 -26.871322 45.343846 143.452850
162 1 1 0.0 -21.545485 47.850891 143.718677
163 1 1 0.0 -25.007364 46.502207 146.516679
164 1 1 0.0 -25.751885 45.657974 142.687296
165 1 1 0.0 -20.715839 48.466343 147.624138
166 1 1 0.0 -15.108069 50.255964 147.889965
167 1 1 0.0 -18.716499 49.371208 150.687967
168 1 1 0.0 -19.564952 48.631500 146.858584
169 1 1 0.0 -14.205116 50.757729 151.795426
170 1 1 0.0 -8.411578 51.799237 152.061253
171 1 1 0.0 -12.104680 51.393582 154.859255
172 1 1 0.0 -13.042516 50.771084 151.029872
173 1 1 0.0 -7.450800 52.178712 155.966714
174 1 1 0.0 -1.570843 52.454248 156.232541
175 1 1 0.0 -5.285287 52.534648 159.030543
176 1 1 0.0 -6.296424 52.040035 155.201160
177 1 1 0.0 -0.568717 52.704923 160.138002
178 1 1 0.0 5.296829 52.209762 160.403829
179 1 1 0.0 1.624739 52.774840 163.201831
180 1 1 0.0 0.557641 52.416593 159.372448
181 1 1 0.0 6.323118 52.327340 164.309290
182 1 1 0.0 12.073670 51.069973 164.575117
183 1 1 0.0 8.506904 52.110039 167.373119
184 1 1 0.0 7.402143 51.894301 163.543736
185 1 1 0.0 13.106524 51.052438 168.480578
186 1 1 0.0 18.643469 49.054426 168.746405
187 1 1 0.0 15.243191 50.551644 171.544407
188 1 1 0.0 14.119711 50.482115 167.715024
189 1 1 0.0 19.665176 48.902078 172.651866
190 1 1 0.0 24.893567 46.197684 172.917693
191 1 1 0.0 21.718084 48.126379 175.715695
192 1 1 0.0 20.595152 48.204252 171.886312
193 1 1 0.0 29.334064 42.769867 173.152720
194 1 1 0.0 33.293227 39.214736 174.030162
195 1 1 0.0 30.834737 41.867692 176.434384
196 1 1 0.0 34.671295 38.570068 177.324008
197 1 1 0.0 38.131962 34.528074 178.201450
198 1 1 0.0 36.041214 37.479535 180.605672
199 1 1 0.0 39.413976 33.708862 181.495296
200 1 1 0.0 42.316803 29.249319 182.372738
201 1 1 0.0 40.629649 32.448672 184.776960
202 1 1 0.0 43.480778 28.269609 185.666584
203 1 1 0.0 45.775987 23.468990 186.544026
204 1 1 0.0 44.521359 26.861372 188.948248
205 1 1 0.0 46.801963 22.345584 189.837872
206 1 1 0.0 48.450195 17.286210 190.715314
207 1 1 0.0 47.649607 20.813448 193.119536
208 1 1 0.0 49.320579 16.038372 194.009160
209 1 1 0.0 50.293570 10.807003 194.886602
210 1 1 0.0 49.960751 14.408611 197.290824
211 1 1 0.0 50.993436 9.456131 198.180448
212 1 1 0.0 51.274500 4.142475 199.057890
213 1 1 0.0 51.415157 7.756692 1.462112
214 1 1 0.0 51.791847 2.711734 2.351736
215 1 1 0.0 51.376165 -2.593089 3.229178
216 1 1 0.0 51.987887 0.971760 5.633400
217 1 1 0.0 51.702121 -4.079164 6.523024
218 1 1 0.0 50.596822 -9.284186 7.400466
219 1 1 0.0 51.669118 -5.829836 9.804688
220 1 1 0.0 50.725797 -10.800112 10.694312
221 1 1 0.0 48.949834 -15.816075 11.571754
222 1 1 0.0 50.464316 -12.531460 13.975976
223 1 1 0.0 48.879617 -17.335858 14.865600
224 1 1 0.0 46.463444 -22.076748 15.743042
225 1 1 0.0 48.394142 -19.018193 18.147264
226 1 1 0.0 46.195239 -23.574324 19.036888
227 1 1 0.0 43.180291 -27.958844 19.914330
228 1 1 0.0 45.494096 -25.178798 22.318552
229 1 1 0.0 42.718697 -29.408534 23.208176
230 1 1 0.0 39.156673 -33.361497 24.085618
231 1 1 0.0 41.813909 -30.907633 26.489840
232 1 1 0.0 38.509605 -34.738440 27.379464
233 1 1 0.0 34.461588 -38.192059 28.256906
234 1 1 0.0 37.416688 -36.106456 30.661128
235 1 1 0.0 33.640144 -39.472644 31.550752
236 1 1 0.0 29.175550 -42.367697 32.428194
237 1 1 0.0 32.377838 -40.686120 34.832416
238 1 1 0.0 28.193814 -43.529964 35.722040
239 1 1 0.0 23.389203 -45.816805 36.599482
240 1 1 0.0 26.783766 -44.568089 39.003704
241 1 1 0.0 22.264011 -46.840823 39.893328
242 1 1 0.0 17.201774 -48.480238 40.770770
243 1 1 0.0 20.730402 -47.685796 43.174992
244 1 1 0.0 15.952421 -49.348446 44.064616
245 1 1 0.0 10.719365 -50.312321 44.942058
246 1 1 0.0 14.321548 -49.985778 47.346280
247 1 1 0.0 9.367275 -51.009833 48.235904
248 1 1 0.0 4.053138 -51.281639 49.113346
249 1 1 0.0 7.667105 -51.428593 51.517568
250 1 1 0.0 2.621498 -51.796493 52.407192
251 1 1 0.0 -2.682592 -51.371570 53.284634
252 1 1 0.0 0.881186 -51.989501 55.688856
253 1 1 0.0 -4.169234 -51.694936 56.578480
254 1 1 0.0 -9.372321 -50.580570 57.455922
255 1 1 0.0 -5.919845 -51.658882 59.860144
256 1 1 0.0 -10.888470 -50.706904 60.749768
257 1 1 0.0 -15.901332 -48.922205 61.627210
258 1 1 0.0 -12.619360 -50.442407 64.031432
259 1 1 0.0 -17.420989 -48.849340 64.921056
260 1 1 0.0 -22.157663 -46.424912 65.798498
261 1 1 0.0 -19.102477 -48.360935 68.202720
262 1 1 0.0 -23.654770 -46.154098 69.092344
263 1 1 0.0 -28.034031 -43.131515 69.969786
264 1 1 0.0 -25.258020 -45.450161 72.374008
265 1 1 0.0 -29.482914 -42.667396 73.263632
266 1 1 0.0 -33.429665 -39.098491 74.141074
267 1 1 0.0 -30.980434 -41.759998 76.545296
268 1 1 0.0 -34.805478 -38.449026 77.434920
269 1 1 0.0 -38.252041 -34.394998 78.312362
270 1 1 0.0 -36.171589 -37.353726 80.716584
271 1 1 0.0 -39.531192 -33.571323 81.606208
272 1 1 0.0 -42.418463 -29.101693 82.483650
273 1 1 0.0 -40.742466 -32.306905 84.887872
274 1 1 0.0 -43.579017 -28.117933 85.777496
275 1 1 0.0 -45.857485 -23.309346 86.654938
276 1 1 0.0 -44.614684 -26.706079 89.059160
277 1 1 0.0 -46.879540 -22.182372 89.948784
278 1 1 0.0 -48.510133 -17.117285 90.826226
279 1 1 0.0 -47.721840 -20.647292 93.230448
280 1 1 0.0 -49.376164 -15.866422 94.120072
281 1 1 0.0 -50.330920 -10.631695 94.997514
282 1 1 0.0 -50.010653 -14.234441 97.401736
283 1 1 0.0 -51.026075 -9.278392 98.291360
284 1 1 0.0 -51.288623 -3.963789 99.168802
285 1 1 0.0 -51.441873 -7.577495 101.573024
286 1 1 0.0 -51.800981 -2.531254 102.462648
287 1 1 0.0 -51.366818 2.772088 103.340090
288 1 1 0.0 -51.990957 -0.790608 105.744312
289 1 1 0.0 -51.687594 4.259290 106.633936
290 1 1 0.0 -50.564165 9.460429 107.511378
291 1 1 0.0 -51.648490 6.009836 109.915600
292 1 1 0.0 -50.687857 10.976795 110.805224
293 1 1 0.0 -48.894427 15.986540 111.682666
294 1 1 0.0 -50.420345 12.707222 114.086888
295 1 1 0.0 -48.818915 17.506068 114.976512
296 1 1 0.0 -46.386238 22.238511 115.853954
297 1 1 0.0 -48.327582 19.186702 118.258176
298 1 1 0.0 -46.112817 23.735144 119.147800
299 1 1 0.0 -43.082609 28.109132 120.025242
300 1 1 0.0 -45.406087 25.337165 122.429464
301 1 1 0.0 -42.615966 29.557204 123.319088
302 1 1 0.0 -39.040190 33.497731 124.196530
303 1 1 0.0 -41.705960 31.053141 126.600752
304 1 1 0.0 -38.388329 34.872412 127.490376
305 1 1 0.0 -34.328303 38.311905 128.367818
306 1 1 0.0 -37.290651 36.236612 130.772040
307 1 1 0.0 -33.502401 39.589620 131.661664
308 1 1 0.0 -29.027747 42.469099 132.539106
309 1 1 0.0 -32.235875 40.798690 134.943328
310 1 1 0.0 -28.041967 43.627938 135.832952
311 1 1 0.0 -23.229417 45.898024 136.710394
312 1 1 0.0 -26.628311 44.661144 139.114616
313 1 1 0.0 -22.100664 46.918115 140.004240
314 1 1 0.0 -17.032745 48.539881 140.881682
315 1 1 0.0 -20.564119 47.757740 143.285904
316 1 1 0.0 -15.780375 49.403731 144.175528
317 1 1 0.0 -10.543992 50.349367 145.052970
318 1 1 0.0 -14.147291 50.035376 147.457192
319 1 1 0.0 -9.189480 51.042162 148.346816
320 1 1 0.0 -3.874428 51.295451 149.224258
321 1 1 0.0 -7.487861 51.454996 151.628480
322 1 1 0.0 -2.441002 51.805313 152.518104
323 1 1 0.0 2.861575 51.361911 153.395546
324 1 1 0.0 -0.700028 51.992256 155.799768
325 1 1 0.0 4.349334 51.680095 156.689392
326 1 1 0.0 9.548507 50.547606 157.566834
327 1 1 0.0 6.099809 51.637942 159.971056
328 1 1 0.0 11.065087 50.668656 160.860680
329 1 1 0.0 16.071700 48.866501 161.738122
330 1 1 0.0 12.795045 50.398130 164.142344
331 1 1 0.0 17.591094 48.788342 165.031968
332 1 1 0.0 22.319291 46.347424 165.909410
333 1 1 0.0 19.270869 48.294081 168.313632
334 1 1 0.0 23.815445 46.071395 169.203256
335 1 1 0.0 28.184148 43.033572 170.080698
336 1 1 0.0 25.416233 45.361876 172.484920
337 1 1 0.0 31.942157 40.369686 170.765728
338 1 1 0.0 35.474436 36.695036 171.887155
339 1 1 0.0 31.616296 39.332501 171.063964
340 1 1 0.0 36.943394 35.849667 174.937016
341 1 1 0.0 39.965220 31.744960 176.058443
342 1 1 0.0 36.484797 34.863955 175.235252
343 1 1 0.0 41.311118 30.714890 179.108304
344 1 1 0.0 43.770672 26.250515 180.229731
345 1 1 0.0 40.727651 29.797554 179.406540
346 1 1 0.0 44.970431 25.053408 183.279592
347 1 1 0.0 46.825536 20.305921 184.401019
348 1 1 0.0 44.272098 24.220180 183.577828
349 1 1 0.0 47.858583 18.962306 187.450880
350 1 1 0.0 49.077427 14.013117 188.572307
351 1 1 0.0 47.057359 18.227472 187.749116
352 1 1 0.0 49.926045 12.546034 191.622168
353 1 1 0.0 50.487728 7.480013 192.743595
354 1 1 0.0 49.035671 11.922197 191.920404
355 1 1 0.0 51.137366 5.914620 195.793456
356 1 1 0.0 51.032255 0.818641 196.914883
357 1 1 0.0 50.173109 5.412477 196.091692
358 1 1 0.0 51.471774 -0.818219 199.964744
359 1 1 0.0 50.701672 -5.856770 1.086171
360 1 1 0.0 50.450169 -1.190057 0.262980
361 1 1 0.0 50.923533 -7.537027 4.136032
362 1 1 0.0 49.501646 -12.431748 5.257459
363 1 1 0.0 49.862099 -7.772183 4.434268
364 1 1 0.0 49.502045 -14.126589 8.307320
365 1 1 0.0 47.452756 -18.793543 9.428747
366 1 1 0.0 48.418984 -14.221031 8.605556
367 1 1 0.0 47.231686 -20.473905 12.478608
368 1 1 0.0 44.590136 -24.833063 13.600035
369 1 1 0.0 46.145571 -20.426013 12.776844
370 1 1 0.0 44.151389 -26.470130 16.649896
371 1 1 0.0 40.962876 -30.446741 17.771323
372 1 1 0.0 43.080845 -26.280727 16.948132
373 1 1 0.0 40.313976 -32.012440 20.821184
374 1 1 0.0 36.633177 -35.538312 21.942611
375 1 1 0.0 39.277359 -31.684773 21.119420
376 1 1 0.0 35.785250 -37.005795 24.992472
377 1 1 0.0 31.675284 -40.020465 26.113899
378 1 1 0.0 34.800338 -36.545482 25.290708
379 1 1 0.0 30.642871 -41.364567 29.163760
380 1 1 0.0 26.174218 -43.816339 30.285187
381 1 1 0.0 29.726553 -40.779502 29.461996
382 1 1 0.0 24.975023 -45.014011 33.335048
383 1 1 0.0 20.224311 -46.860842 34.456475
384 1 1 0.0 24.143012 -44.314227 33.633284
385 1 1 0.0 18.878898 -47.891546 37.506336
386 1 1 0.0 13.927593 -49.101766 38.627763
387 1 1 0.0 18.145461 -47.089043 37.804572
388 1 1 0.0 12.459034 -49.947827 41.677624
389 1 1 0.0 7.392042 -50.500683 42.799051
390 1 1 0.0 11.836749 -49.056367 41.975860
391 1 1 0.0 5.825519 -51.147593 45.848912
392 1 1 0.0 0.729731 -51.033604 46.970339
393 1 1 0.0 5.325057 -50.182462 46.147148
394 1 1 0.0 -0.907892 -51.470270 50.020200
395 1 1 0.0 -5.945094 -50.691391 51.141627
396 1 1 0.0 -1.277949 -50.448019 50.318436
397 1 1 0.0 -7.625735 -50.910324 54.191488
398 1 1 0.0 -12.517971 -49.479912 55.312915
399 1 1 0.0 -7.859041 -49.848483 54.489724
400 1 1 0.0 -14.212810 -49.477359 58.362776
401 1 1 0.0 -18.876187 -47.419941 59.484203
402 1 1 0.0 -14.305365 -48.394135 58.661012
403 1 1 0.0 -20.556161 -47.195945 62.534064
404 1 1 0.0 -24.910711 -44.546804 63.655491
405 1 1 0.0 -20.506377 -46.109915 62.832300
406 1 1 0.0 -26.547010 -44.105206 66.705352
407 1 1 0.0 -30.518060 -40.909770 67.826779
408 1 1 0.0 -26.355742 -43.034993 67.003588
409 1 1 0.0 -32.082627 -40.258142 70.876640
410 1 1 0.0 -35.602081 -36.571206 71.998067
411 1 1 0.0 -31.753154 -39.222098 71.174876
412 1 1 0.0 -37.068084 -35.720724 75.047928
413 1 1 0.0 -40.075589 -31.605513 76.169355
414 1 1 0.0 -36.606056 -34.736615 75.346164
415 1 1 0.0 -41.417890 -30.570759 79.219216
416 1 1 0.0 -43.861874 -26.097841 80.340643
417 1 1 0.0 -40.831230 -29.655462 79.517452
418 1 1 0.0 -45.057454 -24.896562 83.390504
419 1 1 0.0 -46.896006 -20.142639 84.511931
420 1 1 0.0 -44.356222 -24.065771 83.688740
421 1 1 0.0 -47.924364 -18.795432 87.561792
422 1 1 0.0 -49.125956 -13.842027 88.683219
423 1 1 0.0 -47.120585 -18.063395 87.860028
424 1 1 0.0 -49.969458 -12.371995 91.733080
425 1 1 0.0 -50.513485 -7.304049 92.854507
426 1 1 0.0 -49.076915 -11.751265 92.031316
427 1 1 0.0 -51.157665 -5.736401 95.904368
428 1 1 0.0 -51.034798 -0.640819 97.025795
429 1 1 0.0 -50.191664 -5.237621 96.202604
430 1 1 0.0 -51.468610 0.997562 100.075656
431 1 1 0.0 -50.680957 6.033399 101.197083
432 1 1 0.0 -50.445716 1.365838 100.373892
433 1 1 0.0 -50.896962 7.714419 104.246944
434 1 1 0.0 -49.458028 12.604155 105.368371
435 1 1 0.0 -49.834715 7.945875 104.545180
436 1 1 0.0 -49.452522 14.298988 108.418232
437 1 1 0.0 -47.386983 18.958773 109.539659
438 1 1 0.0 -48.369139 14.389655 108.716468
439 1 1 0.0 -47.160060 20.638354 112.589520
440 1 1 0.0 -44.503337 24.988282 113.710947
441 1 1 0.0 -46.074119 20.586679 112.887756
442 1 1 0.0 -44.058889 26.623810 116.760808
443 1 1 0.0 -40.856539 30.589287 117.882235
444 1 1 0.0 -42.989011 26.430678 117.059044
445 1 1 0.0 -40.202187 32.152716 120.932096
446 1 1 0.0 -36.509125 35.665741 122.053523
447 1 1 0.0 -39.166719 31.821438 121.230332
448 1 1 0.0 -35.656090 37.130260 125.103384
449 1 1 0.0 -31.535645 40.130591 126.224811
450 1 1 0.0 -34.672788 36.666518 125.401620
451 1 1 0.0 -30.498555 41.471088 129.274672
452 1 1 0.0 -26.021385 43.907275 130.396099
453 1 1 0.0 -29.584281 40.882834 129.572908
454 1 1 0.0 -24.818025 45.100761 133.445960
455 1 1 0.0 -20.060906 46.931027 134.567387
456 1 1 0.0 -23.988457 44.398082 133.744196
457 1 1 0.0 -18.711910 47.957037 137.617248
458 1 1 0.0 -13.756418 49.149997 138.738675
459 1 1 0.0 -17.981274 47.151983 137.915484
460 1 1 0.0 -12.284920 49.990936 141.788536
461 1 1 0.0 -7.216033 50.526133 142.909963
462 1 1 0.0 -11.665745 49.097313 142.086772
463 1 1 0.0 -5.647266 51.167581 145.959824
464 1 1 0.0 -0.551905 51.035837 147.081251
465 1 1 0.0 -5.150170 50.200712 146.258060
466 1 1 0.0 1.087229 51.466794 150.131112
467 1 1 0.0 6.121686 50.670368 151.252539
468 1 1 0.0 1.453722 50.443260 150.429348
469 1 1 0.0 7.803080 50.883444 154.302400
470 1 1 0.0 12.690302 49.435994 155.423827
471 1 1 0.0 8.032685 49.820796 154.600636
472 1 1 0.0 14.385122 49.427535 158.473688
473 1 1 0.0 19.041302 47.353881 159.595115
474 1 1 0.0 14.473902 48.343996 158.771924
475 1 1 0.0 20.720485 47.124033 162.644976
476 1 1 0.0 25.065778 44.459735 163.766403
477 1 1 0.0 20.666918 46.038183 162.943212
478 1 1 0.0 26.700529 44.012438 166.816264
479 1 1 0.0 30.660421 40.803184 167.937691
480 1 1 0.0 26.505533 42.942898 167.114500
481 1 1 0.0 33.879592 37.508321 168.992538
482 1 1 0.0 36.894817 33.734317 170.412555
483 1 1 0.0 34.871473 35.637653 172.374454
484 1 1 0.0 33.160128 36.356319 169.651010
485 1 1 0.0 38.490322 32.759670 173.163826
486 1 1 0.0 40.986545 28.624025 174.583843
487 1 1 0.0 39.229259 30.775432 176.545742
488 1 1 0.0 37.626495 31.711558 173.822298
489 1 1 0.0 42.441012 27.449250 177.335114
490 1 1 0.0 44.375428 23.022882 178.755131
491 1 1 0.0 42.914333 25.385468 180.717030
492 1 1 0.0 41.447635 26.523001 177.993586
493 1 1 0.0 45.663916 21.668125 181.506402
494 1 1 0.0 47.003351 17.026939 182.926419
495 1 1 0.0 45.863504 19.560189 184.888318
496 1 1 0.0 44.558023 20.879622 182.164874
497 1 1 0.0 48.103766 15.515430 185.677690
498 1 1 0.0 48.825252 10.739014 187.097707
499 1 1 0.0 48.026198 13.399488 189.059606
500 1 1 0.0 46.904321 14.878196 186.336162
501 1 1 0.0 49.718723 9.096674 189.848978
502 1 1 0.0 49.809888 4.266934 191.268995
503 1 1 0.0 49.365329 7.009010 193.230894
504 1 1 0.0 48.446294 8.621635 190.507450
505 1 1 0.0 50.481093 2.521926 194.020266
506 1 1 0.0 49.940374 -2.278315 195.440283
507 1 1 0.0 49.857934 0.498340 197.402182
508 1 1 0.0 49.157501 2.217228 194.678738
509 1 1 0.0 50.377803 -4.096068 198.191554
510 1 1 0.0 49.214473 -8.784496 199.611571
511 1 1 0.0 49.495565 -6.020876 1.573470
512 1 1 0.0 49.025745 -4.225200 198.850026
513 1 1 0.0 49.410625 -10.643823 2.362842
514 1 1 0.0 47.644632 -15.140039 3.782859
515 1 1 0.0 48.284437 -12.436844 5.744758
516 1 1 0.0 48.053286 -10.595173 3.021314
517 1 1 0.0 47.596144 -17.009054 6.534130
518 1 1 0.0 45.257771 -21.235957 7.954147
519 1 1 0.0 46.245317 -18.639543 9.916046
520 1 1 0.0 46.256800 -16.783458 7.192602
521 1 1 0.0 44.965474 -23.082611 10.705418
522 1 1 0.0 42.094821 -26.967716 12.125435
523 1 1 0.0 43.413174 -24.522608 14.087334
524 1 1 0.0 43.667093 -22.683938 11.363890
525 1 1 0.0 41.563728 -28.760343 14.876706
526 1 1 0.0 38.210021 -32.237028 16.296723
527 1 1 0.0 39.836572 -29.985154 18.258622
528 1 1 0.0 40.328574 -28.195428 15.535178
529 1 1 0.0 37.449239 -33.944887 19.047994
530 1 1 0.0 33.669987 -36.953533 20.468011
531 1 1 0.0 35.576846 -34.933508 22.429910
532 1 1 0.0 36.298492 -33.223418 19.706466
533 1 1 0.0 32.692562 -38.547337 23.219282
534 1 1 0.0 28.552575 -41.036352 24.639299
535 1 1 0.0 30.707040 -39.282816 26.601198
536 1 1 0.0 31.645957 -37.681686 23.877754
537 1 1 0.0 27.375267 -42.488770 27.390570
538 1 1 0.0 22.945536 -44.415471 28.810587
539 1 1 0.0 25.310664 -42.958494 30.772486
540 1 1 0.0 26.450751 -41.493780 28.049042
541 1 1 0.0 21.588536 -45.701597 31.561858
542 1 1 0.0 16.945024 -47.032944 32.981875
543 1 1 0.0 19.480256 -45.897512 34.943774
544 1 1 0.0 20.801962 -44.594332 32.220330
545 1 1 0.0 15.431600 -48.130724 35.733146
546 1 1 0.0 10.653934 -48.843888 37.153163
547 1 1 0.0 13.315796 -48.049469 39.115062
548 1 1 0.0 14.796456 -46.930171 36.391618
549 1 1 0.0 9.010040 -49.734495 39.904434
550 1 1 0.0 4.180149 -49.817246 41.324451
551 1 1 0.0 6.922995 -49.377465 43.286350
552 1 1 0.0 8.537218 -48.461242 40.562906
553 1 1 0.0 2.433974 -50.485410 44.075722
554 1 1 0.0 -2.365318 -49.936329 45.495739
555 1 1 0.0 0.411476 -49.858727 47.457638
556 1 1 0.0 2.131583 -49.161290 44.734194
557 1 1 0.0 -4.183831 -50.370591 48.247010
558 1 1 0.0 -8.870224 -49.199094 49.667027
559 1 1 0.0 -6.107098 -49.485001 51.628926
560 1 1 0.0 -4.310606 -49.018310 48.905482
561 1 1 0.0 -10.729890 -49.392007 52.418298
562 1 1 0.0 -15.223022 -47.618182 53.838315
563 1 1 0.0 -12.520947 -48.262696 55.800214
564 1 1 0.0 -10.678876 -48.034755 53.076770
565 1 1 0.0 -17.091951 -47.566439 56.589586
566 1 1 0.0 -21.314773 -45.220705 58.009603
567 1 1 0.0 -18.720084 -46.212773 59.971502
568 1 1 0.0 -16.864022 -46.227490 57.248058
569 1 1 0.0 -23.160915 -44.925192 60.760874
570 1 1 0.0 -27.041013 -42.047774 62.180891
571 1 1 0.0 -24.598205 -43.370384 64.142790
572 1 1 0.0 -22.759980 -43.627507 61.419346
573 1 1 0.0 -28.832712 -41.513559 64.932162
574 1 1 0.0 -32.303549 -38.153799 66.352179
575 1 1 0.0 -30.054512 -39.784272 68.314078
576 1 1 0.0 -28.265646 -40.279391 65.590634
577 1 1 0.0 -34.010080 -37.390043 69.103450
578 1 1 0.0 -37.012137 -33.605556 70.523467
579 1 1 0.0 -34.995437 -35.515930 72.485366
580 1 1 0.0 -33.286607 -36.240555 69.761922
581 1 1 0.0 -38.604236 -32.625356 73.274738
582 1 1 0.0 -41.086034 -28.481038 74.694755
583 1 1 0.0 -39.336254 -30.638555 76.656654
584 1 1 0.0 -37.736762 -31.580260 73.933210
585 1 1 0.0 -42.536399 -27.301202 77.446026
586 1 1 0.0 -44.455379 -22.868121 78.866043
587 1 1 0.0 -43.002525 -25.235783 80.827942
588 1 1 0.0 -41.539800 -26.378420 78.104498
589 1 1 0.0 -45.739139 -21.508882 81.617314
590 1 1 0.0 -47.062395 -16.863057 83.037331
591 1 1 0.0 -45.931381 -19.400264 84.999230
592 1 1 0.0 -44.630505 -20.724238 82.275786
593 1 1 0.0 -48.157536 -15.347723 85.788602
594 1 1 0.0 -48.862375 -10.568822 87.208619
595 1 1 0.0 -48.072595 -13.232064 89.170518
596 1 1 0.0 -46.955878 -14.714672 86.447074
597 1 1 0.0 -49.750117 -8.923379 89.959890
598 1 1 0.0 -49.824453 -4.093351 91.379907
599 1 1 0.0 -49.389452 -6.836959 93.341806
600 1 1 0.0 -48.476042 -8.452776 90.618362
601 1 1 0.0 -50.489574 -2.346014 94.131178
602 1 1 0.0 -49.932132 2.452314 95.551195
603 1 1 0.0 -49.859368 -0.324612 97.513094
604 1 1 0.0 -49.164929 -2.045930 94.789650
605 1 1 0.0 -50.363225 4.271580 98.302466
606 1 1 0.0 -49.183565 8.955926 99.722483
607 1 1 0.0 -49.474286 6.193302 101.684382
608 1 1 0.0 -49.010726 4.395999 98.960938
609 1 1 0.0 -49.373238 10.815924 102.473754
610 1 1 0.0 -47.591588 15.305960 103.893771
611 1 1 0.0 -48.240809 12.605011 105.855670
612 1 1 0.0 -48.016077 10.762546 103.132226
613 1 1 0.0 -47.536589 17.174795 106.645042
614 1 1 0.0 -45.183502 21.393524 108.065059
615 1 1 0.0 -46.180089 18.800567 110.026958
616 1 1 0.0 -46.198039 16.944533 107.303514
617 1 1 0.0 -44.884773 23.239149 110.816330
618 1 1 0.0 -42.000599 27.114228 112.236347
619 1 1 0.0 -43.327464 24.673728 114.198246
620 1 1 0.0 -43.587788 22.835953 111.474802
621 1 1 0.0 -41.463263 28.904993 114.987618
622 1 1 0.0 -38.097462 32.369972 116.407635
623 1 1 0.0 -39.731850 30.123778 118.369534
624 1 1 0.0 -40.230085 28.335778 115.646090
625 1 1 0.0 -37.330734 34.075169 119.158906
626 1 1 0.0 -33.541022 37.070629 120.578923
627 1 1 0.0 -35.454907 35.057260 122.540822
628 1 1 0.0 -36.182508 33.349694 119.817378
629 1 1 0.0 -32.558050 38.661017 123.330194
630 1 1 0.0 -28.409414 41.135591 124.750211
631 1 1 0.0 -30.569977 39.389573 126.712110
632 1 1 0.0 -31.514467 37.791724 123.988666
633 1 1 0.0 -27.227054 42.583898 127.501482
634 1 1 0.0 -22.790636 44.495153 128.921499
635 1 1 0.0 -25.160826 43.046426 130.883398
636 1 1 0.0 -26.306009 41.585694 128.159954
637 1 1 0.0 -21.429162 45.776543 131.672770
638 1 1 0.0 -16.781039 47.091702 133.092787
639 1 1 0.0 -19.320212 45.965110 135.054686
640 1 1 0.0 -20.646451 44.666543 132.331242
641 1 1 0.0 -15.263800 48.184201 135.844058
642 1 1 0.0 -10.483678 48.880714 137.264075
643 1 1 0.0 -13.148292 48.095575 139.225974
644 1 1 0.0 -14.632843 46.981442 136.502530
645 1 1 0.0 -8.836690 49.765588 140.015346
646 1 1 0.0 -4.006541 49.831509 141.435363
647 1 1 0.0 -6.750902 49.401288 143.397262
648 1 1 0.0 -8.368308 48.490694 140.673818
649 1 1 0.0 -2.258048 50.493584 144.186634
650 1 1 0.0 2.539302 49.927784 145.606651
651 1 1 0.0 -0.237746 49.859858 147.568550
652 1 1 0.0 -1.960272 49.168418 144.845106
653 1 1 0.0 4.359316 50.355707 148.357922
654 1 1 0.0 9.041600 49.167888 149.777939
655 1 1 0.0 6.279486 49.463421 151.739838
656 1 1 0.0 4.481379 49.002993 149.016394
657 1 1 0.0 10.901926 49.354320 152.529210
658 1 1 0.0 15.388850 47.564850 153.949227
659 1 1 0.0 12.689037 48.218775 155.911126
660 1 1 0.0 10.846183 47.997254 153.187682
661 1 1 0.0 17.257587 47.506595 156.700498
662 1 1 0.0 21.472210 45.146161 158.120515
663 1 1 0.0 18.880994 46.147264 160.082414
664 1 1 0.0 17.024994 46.168448 157.358970
665 1 1 0.0 23.317312 44.844217 160.871786
666 1 1 0.0 27.187360 41.953297 162.291803
667 1 1 0.0 24.749175 43.284411 164.253702
668 1 1 0.0 22.911857 43.547937 161.530258
669 1 1 0.0 28.977187 41.412842 165.043074
670 1 1 0.0 32.436296 38.041009 166.463091
671 1 1 0.0 30.192953 39.679308 168.424990
672 1 1 0.0 28.405823 40.180657 165.701546
673 1 1 0.0 35.187246 34.646955 167.795739
674 1 1 0.0 37.726291 30.812240 169.478097
675 1 1 0.0 35.926905 32.585817 171.227688
676 1 1 0.0 34.138459 33.380137 168.755617
677 1 1 0.0 39.412870 29.751966 171.967027
678 1 1 0.0 41.429062 25.618353 173.649385
679 1 1 0.0 39.876858 27.611850 175.398976
680 1 1 0.0 38.207539 28.633056 172.926905
681 1 1 0.0 42.962633 24.346785 176.138315
682 1 1 0.0 44.421398 19.985158 177.820673
683 1 1 0.0 43.142994 22.164389 179.570264
684 1 1 0.0 41.621429 23.394969 177.098193
685 1 1 0.0 45.775665 18.524100 180.309603
686 1 1 0.0 46.651988 14.009253 181.991961
687 1 1 0.0 45.669305 16.336849 183.741552
688 1 1 0.0 44.321586 17.755701 181.269481
689 1 1 0.0 47.803726 12.383761 184.480891
690 1 1 0.0 48.082580 7.793115 186.163249
691 1 1 0.0 47.412470 10.229161 187.912840
692 1 1 0.0 46.261709 11.811954 185.440769
693 1 1 0.0 49.012040 6.031062 188.652179