33763
timestep 0 4.171288 4.171288 4.171288
Au 0.000000 0.000000 0.000000
Au 0.000000 0.000000 4.171288
Au 0.000000 0.000000 8.342576
Au 0.000000 0.000000 12.513864
Au 0.000000 0.000000 16.685152
Au 0.000000 0.000000 20.856440
Au 0.000000 0.000000 25.027728
Au 0.000000 0.000000 29.199016
Au 0.000000 0.000000 33.370304
Au 0.000000 0.000000 37.541592
Au 0.000000 0.000000 41.712880
Au 0.000000 0.000000 45.884168
Au 0.000000 0.000000 50.055456
Au 0.000000 0.000000 54.226744
Au 0.000000 0.000000 58.398032
Au 0.000000 0.000000 62.569320
Au 0.000000 0.000000 66.740608
Au 0.000000 0.000000 70.911896
Au 0.000000 0.000000 75.083184
Au 0.000000 0.000000 79.254472
Au 0.000000 0.000000 83.425760
Au 0.000000 0.000000 87.597048
Au 0.000000 0.000000 91.768336
Au 0.000000 0.000000 95.939624
Au 0.000000 0.000000 100.110912
Au 0.000000 0.000000 104.282200
Au 0.000000 0.000000 108.453488
Au 0.000000 0.000000 112.624776
Au 0.000000 0.000000 116.796064
Au 0.000000 0.000000 120.967352
Au 0.000000 0.000000 125.138640
Au 0.000000 0.000000 129.309928
Au 0.000000 0.000000 133.481216
Au 0.000000 0.000000 137.652504
Au 0.000000 0.000000 141.823792
Au 0.000000 0.000000 145.995080
Au 0.000000 0.000000 150.166368
Au 0.000000 2.085644 2.085644
Au 0.000000 2.085644 6.256932
Au 0.000000 2.085644 10.428220
Au 0.000000 2.085644 14.599508
Au 0.000000 2.085644 18.770796
Au 0.000000 2.085644 22.942084
Au 0.000000 2.085644 27.113372
Au 0.000000 2.085644 31.284660
Au 0.000000 2.085644 35.455948
Au 0.000000 2.085644 39.627236
Au 0.000000 2.085644 43.798524
Au 0.000000 2.085644 47.969812
Au 0.000000 2.085644 52.141100
Au 0.000000 2.085644 56.312388
Au 0.000000 2.085644 60.483676
Au 0.000000 2.085644 64.654964
Au 0.000000 2.085644 68.826252
Au 0.000000 2.085644 72.997540
Au 0.000000 2.085644 77.168828
Au 0.000000 2.085644 81.340116
Au 0.000000 2.085644 85.511404
Au 0.000000 2.085644 89.682692
Au 0.000000 2.085644 93.853980
Au 0.000000 2.085644 98.025268
Au 0.000000 2.085644 102.196556
Au 0.000000 2.085644 106.367844
Au 0.000000 2.085644 110.539132
Au 0.000000 2.085644 114.710420
Au 0.000000 2.085644 118.881708
Au 0.000000 2.085644 123.052996
Au 0.000000 2.085644 127.224284
Au 0.000000 2.085644 131.395572
Au 0.000000 2.085644 135.566860
Au 0.000000 2.085644 139.738148
Au 0.000000 2.085644 143.909436
Au 0.000000 2.085644 148.080724
Au 0.000000 4.171288 0.000000
Au 0.000000 4.171288 4.171288
Au 0.000000 4.171288 8.342576
Au 0.000000 4.171288 12.513864
Au 0.000000 4.171288 16.685152
Au 0.000000 4.171288 20.856440
Au 0.000000 4.171288 25.027728
Au 0.000000 4.171288 29.199016
Au 0.000000 4.171288 33.370304
Au 0.000000 4.171288 37.541592
Au 0.000000 4.171288 41.712880
Au 0.000000 4.171288 45.884168
Au 0.000000 4.171288 50.055456
Au 0.000000 4.171288 54.226744
Au 0.000000 4.171288 58.398032
Au 0.000000 4.171288 62.569320
Au 0.000000 4.171288 66.740608
Au 0.000000 4.171288 70.911896
Au 0.000000 4.171288 75.083184
Au 0.000000 4.171288 79.254472
Au 0.000000 4.171288 83.425760
Au 0.000000 4.171288 87.597048
Au 0.000000 4.171288 91.768336
Au 0.000000 4.171288 95.939624
Au 0.000000 4.171288 100.110912
Au 0.000000 4.171288 104.282200
Au 0.000000 4.171288 108.453488
Au 0.000000 4.171288 112.624776
Au 0.000000 4.171288 116.796064
Au 0.000000 4.171288 120.967352
Au 0.000000 4.171288 125.138640
Au 0.000000 4.171288 129.309928
Au 0.000000 4.171288 133.481216
Au 0.000000 4.171288 137.652504
Au 0.000000 4.171288 141.823792
Au 0.000000 4.171288 145.995080
Au 0.000000 4.171288 150.166368
Au 0.000000 6.256932 2.085644
Au 0.000000 6.256932 6.256932
Au 0.000000 6.256932 10.428220
Au 0.000000 6.256932 14.599508
Au 0.000000 6.256932 18.770796
Au 0.000000 6.256932 22.942084
Au 0.000000 6.256932 27.113372
Au 0.000000 6.256932 31.284660
Au 0.000000 6.256932 35.455948
Au 0.000000 6.256932 39.627236
Au 0.000000 6.256932 43.798524
Au 0.000000 6.256932 47.969812
Au 0.000000 6.256932 52.141100
Au 0.000000 6.256932 56.312388
Au 0.000000 6.256932 60.483676
Au 0.000000 6.256932 64.654964
Au 0.000000 6.256932 68.826252
Au 0.000000 6.256932 72.997540
Au 0.000000 6.256932 77.168828
Au 0.000000 6.256932 81.340116
Au 0.000000 6.256932 85.511404
Au 0.000000 6.256932 89.682692
Au 0.000000 6.256932 93.853980
Au 0.000000 6.256932 98.025268
Au 0.000000 6.256932 102.196556
Au 0.000000 6.256932 106.367844
Au 0.000000 6.256932 110.539132
Au 0.000000 6.256932 114.710420
Au 0.000000 6.256932 118.881708
Au 0.000000 6.256932 123.052996
Au 0.000000 6.256932 127.224284
Au 0.000000 6.256932 131.395572
Au 0.000000 6.256932 135.566860
Au 0.000000 6.256932 139.738148
Au 0.000000 6.256932 143.909436
Au 0.000000 6.256932 148.080724
Au 0.000000 8.342576 0.000000
Au 0.000000 8.342576 4.171288
Au 0.000000 8.342576 8.342576
Au 0.000000 8.342576 12.513864
Au 0.000000 8.342576 16.685152
Au 0.000000 8.342576 20.856440
Au 0.000000 8.342576 25.027728
Au 0.000000 8.342576 29.199016
Au 0.000000 8.342576 33.370304
Au 0.000000 8.342576 37.541592
Au 0.000000 8.342576 41.712880
Au 0.000000 8.342576 45.884168
Au 0.000000 8.342576 50.055456
Au 0.000000 8.342576 54.226744
Au 0.000000 8.342576 58.398032
Au 0.000000 8.342576 62.569320
Au 0.000000 8.342576 66.740608
Au 0.000000 8.342576 70.911896
Au 0.000000 8.342576 75.083184
Au 0.000000 8.342576 79.254472
Au 0.000000 8.342576 83.425760
Au 0.000000 8.342576 87.597048
Au 0.000000 8.342576 91.768336
Au 0.000000 8.342576 95.939624
Au 0.000000 8.342576 100.110912
Au 0.000000 8.342576 104.282200
Au 0.000000 8.342576 108.453488
Au 0.000000 8.342576 112.624776
Au 0.000000 8.342576 116.796064
Au 0.000000 8.342576 120.967352
Au 0.000000 8.342576 125.138640
Au 0.000000 8.342576 129.309928
Au 0.000000 8.342576 133.481216
Au 0.000000 8.342576 137.652504
Au 0.000000 8.342576 141.823792
Au 0.000000 8.342576 145.995080
Au 0.000000 8.342576 150.166368
Au 0.000000 10.428220 2.085644
Au 0.000000 10.428220 6.256932
Au 0.000000 10.428220 10.428220
Au 0.000000 10.428220 14.599508
Au 0.000000 10.428220 18.770796
Au 0.000000 10.428220 22.942084
Au 0.000000 10.428220 27.113372
Au 0.000000 10.428220 31.284660
Au 0.000000 10.428220 35.455948
Au 0.000000 10.428220 39.627236
Au 0.000000 10.428220 43.798524
Au 0.000000 10.428220 47.969812
Au 0.000000 10.428220 52.141100
Au 0.000000 10.428220 56.312388
Au 0.000000 10.428220 60.483676
Au 0.000000 10.428220 64.654964
Au 0.000000 10.428220 68.826252
Au 0.000000 10.428220 72.997540
Au 0.000000 10.428220 77.168828
Au 0.000000 10.428220 81.340116
Au 0.000000 10.428220 85.511404
Au 0.000000 10.428220 89.682692
Au 0.000000 10.428220 93.853980
Au 0.000000 10.428220 98.025268
Au 0.000000 10.428220 102.196556
Au 0.000000 10.428220 106.367844
Au 0.000000 10.428220 110.539132
Au 0.000000 10.428220 114.710420
Au 0.000000 10.428220 118.881708
Au 0.000000 10.428220 123.052996
Au 0.000000 10.428220 127.224284
Au 0.000000 10.428220 131.395572
Au 0.000000 10.428220 135.566860
Au 0.000000 10.428220 139.738148
Au 0.000000 10.428220 143.909436
Au 0.000000 10.428220 148.080724
Au 0.000000 12.513864 0.000000
Au 0.000000 12.513864 4.171288
Au 0.000000 12.513864 8.342576
Au 0.000000 12.513864 12.513864
Au 0.000000 12.513864 16.685152
Au 0.000000 12.513864 20.856440
Au 0.000000 12.513864 25.027728
Au 0.000000 12.513864 29.199016
Au 0.000000 12.513864 33.370304
Au 0.000000 12.513864 37.541592
Au 0.000000 12.513864 41.712880
Au 0.000000 12.513864 45.884168
Au 0.000000 12.513864 50.055456
Au 0.000000 12.513864 54.226744
Au 0.000000 12.513864 58.398032
Au 0.000000 12.513864 62.569320
Au 0.000000 12.513864 66.740608
Au 0.000000 12.513864 70.911896
Au 0.000000 12.513864 75.083184
Au 0.000000 12.513864 79.254472
Au 0.000000 12.513864 83.425760
Au 0.000000 12.513864 87.597048
Au 0.000000 12.513864 91.768336
Au 0.000000 12.513864 95.939624
Au 0.000000 12.513864 100.110912
Au 0.000000 12.513864 104.282200
Au 0.000000 12.513864 108.453488
Au 0.000000 12.513864 112.624776
Au 0.000000 12.513864 116.796064
Au 0.000000 12.513864 120.967352
Au 0.000000 12.513864 125.138640
Au 0.000000 12.513864 129.309928
Au 0.000000 12.513864 133.481216
Au 0.000000 12.513864 137.652504
Au 0.000000 12.513864 141.823792
Au 0.000000 12.513864 145.995080
Au 0.000000 12.513864 150.166368
Au 0.000000 14.599508 2.085644
Au 0.000000 14.599508 6.256932
Au 0.000000 14.599508 10.428220
Au 0.000000 14.599508 14.599508
Au 0.000000 14.599508 18.770796
Au 0.000000 14.599508 22.942084
Au 0.000000 14.599508 27.113372
Au 0.000000 14.599508 31.284660
Au 0.000000 14.599508 35.455948
Au 0.000000 14.599508 39.627236
Au 0.000000 14.599508 43.798524
Au 0.000000 14.599508 47.969812
Au 0.000000 14.599508 52.141100
Au 0.000000 14.599508 56.312388
Au 0.000000 14.599508 60.483676
Au 0.000000 14.599508 64.654964
Au 0.000000 14.599508 68.826252
Au 0.000000 14.599508 72.997540
Au 0.000000 14.599508 77.168828
Au 0.000000 14.599508 81.340116
Au 0.000000 14.599508 85.511404
Au 0.000000 14.599508 89.682692
Au 0.000000 14.599508 93.853980
Au 0.000000 14.599508 98.025268
Au 0.000000 14.599508 102.196556
Au 0.000000 14.599508 106.367844
Au 0.000000 14.599508 110.539132
Au 0.000000 14.599508 114.710420
Au 0.000000 14.599508 118.881708
Au 0.000000 14.599508 123.052996
Au 0.000000 14.599508 127.224284
Au 0.000000 14.599508 131.395572
Au 0.000000 14.599508 135.566860
Au 0.000000 14.599508 139.738148
Au 0.000000 14.599508 143.909436
Au 0.000000 14.599508 148.080724
Au 0.000000 16.685152 0.000000
Au 0.000000 16.685152 4.171288
Au 0.000000 16.685152 8.342576
Au 0.000000 16.685152 12.513864
Au 0.000000 16.685152 16.685152
Au 0.000000 16.685152 20.856440
Au 0.000000 16.685152 25.027728
Au 0.000000 16.685152 29.199016
Au 0.000000 16.685152 33.370304
Au 0.000000 16.685152 37.541592
Au 0.000000 16.685152 41.712880
Au 0.000000 16.685152 45.884168
Au 0.000000 16.685152 50.055456
Au 0.000000 16.685152 54.226744
Au 0.000000 16.685152 58.398032
Au 0.000000 16.685152 62.569320
Au 0.000000 16.685152 66.740608
Au 0.000000 16.685152 70.911896
Au 0.000000 16.685152 75.083184
Au 0.000000 16.685152 79.254472
Au 0.000000 16.685152 83.425760
Au 0.000000 16.685152 87.597048
Au 0.000000 16.685152 91.768336
Au 0.000000 16.685152 95.939624
Au 0.000000 16.685152 100.110912
Au 0.000000 16.685152 104.282200
Au 0.000000 16.685152 108.453488
Au 0.000000 16.685152 112.624776
Au 0.000000 16.685152 116.796064
Au 0.000000 16.685152 120.967352
Au 0.000000 16.685152 125.138640
Au 0.000000 16.685152 129.309928
Au 0.000000 16.685152 133.481216
Au 0.000000 16.685152 137.652504
Au 0.000000 16.685152 141.823792
Au 0.000000 16.685152 145.995080
Au 0.000000 16.685152 150.166368
Au 0.000000 18.770796 2.085644
Au 0.000000 18.770796 6.256932
Au 0.000000 18.770796 10.428220
Au 0.000000 18.770796 14.599508
Au 0.000000 18.770796 18.770796
Au 0.000000 18.770796 22.942084
Au 0.000000 18.770796 27.113372
Au 0.000000 18.770796 31.284660
Au 0.000000 18.770796 35.455948
Au 0.000000 18.770796 39.627236
Au 0.000000 18.770796 43.798524
Au 0.000000 18.770796 47.969812
Au 0.000000 18.770796 52.141100
Au 0.000000 18.770796 56.312388
Au 0.000000 18.770796 60.483676
Au 0.000000 18.770796 64.654964
Au 0.000000 18.770796 68.826252
Au 0.000000 18.770796 72.997540
Au 0.000000 18.770796 77.168828
Au 0.000000 18.770796 81.340116
Au 0.000000 18.770796 85.511404
Au 0.000000 18.770796 89.682692
Au 0.000000 18.770796 93.853980
Au 0.000000 18.770796 98.025268
Au 0.000000 18.770796 102.196556
Au 0.000000 18.770796 106.367844
Au 0.000000 18.770796 110.539132
Au 0.000000 18.770796 114.710420
Au 0.000000 18.770796 118.881708
Au 0.000000 18.770796 123.052996
Au 0.000000 18.770796 127.224284
Au 0.000000 18.770796 131.395572
Au 0.000000 18.770796 135.566860
Au 0.000000 18.770796 139.738148
Au 0.000000 18.770796 143.909436
Au 0.000000 18.770796 148.080724
Au 0.000000 20.856440 0.000000
Au 0.000000 20.856440 4.171288
Au 0.000000 20.856440 8.342576
Au 0.000000 20.856440 12.513864
Au 0.000000 20.856440 16.685152
Au 0.000000 20.856440 20.856440
Au 0.000000 20.856440 25.027728
Au 0.000000 20.856440 29.199016
Au 0.000000 20.856440 33.370304
Au 0.000000 20.856440 37.541592
Au 0.000000 20.856440 41.712880
Au 0.000000 20.856440 45.884168
Au 0.000000 20.856440 50.055456
Au 0.000000 20.856440 54.226744
Au 0.000000 20.856440 58.398032
Au 0.000000 20.856440 62.569320
Au 0.000000 20.856440 66.740608
Au 0.000000 20.856440 70.911896
Au 0.000000 20.856440 75.083184
Au 0.000000 20.856440 79.254472
Au 0.000000 20.856440 83.425760
Au 0.000000 20.856440 87.597048
Au 0.000000 20.856440 91.768336
Au 0.000000 20.856440 95.939624
Au 0.000000 20.856440 100.110912
Au 0.000000 20.856440 104.282200
Au 0.000000 20.856440 108.453488
Au 0.000000 20.856440 112.624776
Au 0.000000 20.856440 116.796064
Au 0.000000 20.856440 120.967352
Au 0.000000 20.856440 125.138640
Au 0.000000 20.856440 129.309928
Au 0.000000 20.856440 133.481216
Au 0.000000 20.856440 137.652504
Au 0.000000 20.856440 141.823792
Au 0.000000 20.856440 145.995080
Au 0.000000 20.856440 150.166368
Au 0.000000 22.942084 2.085644
Au 0.000000 22.942084 6.256932
Au 0.000000 22.942084 10.428220
Au 0.000000 22.942084 14.599508
Au 0.000000 22.942084 18.770796
Au 0.000000 22.942084 22.942084
Au 0.000000 22.942084 27.113372
Au 0.000000 22.942084 31.284660
Au 0.000000 22.942084 35.455948
Au 0.000000 22.942084 39.627236
Au 0.000000 22.942084 43.798524
Au 0.000000 22.942084 47.969812
Au 0.000000 22.942084 52.141100
Au 0.000000 22.942084 56.312388
Au 0.000000 22.942084 60.483676
Au 0.000000 22.942084 64.654964
Au 0.000000 22.942084 68.826252
Au 0.000000 22.942084 72.997540
Au 0.000000 22.942084 77.168828
Au 0.000000 22.942084 81.340116
Au 0.000000 22.942084 85.511404
Au 0.000000 22.942084 89.682692
Au 0.000000 22.942084 93.853980
Au 0.000000 22.942084 98.025268
Au 0.000000 22.942084 102.196556
Au 0.000000 22.942084 106.367844
Au 0.000000 22.942084 110.539132
Au 0.000000 22.942084 114.710420
Au 0.000000 22.942084 118.881708
Au 0.000000 22.942084 123.052996
Au 0.000000 22.942084 127.224284
Au 0.000000 22.942084 131.395572
Au 0.000000 22.942084 135.566860
Au 0.000000 22.942084 139.738148
Au 0.000000 22.942084 143.909436
Au 0.000000 22.942084 148.080724
Au 0.000000 25.027728 0.000000
Au 0.000000 25.027728 4.171288
Au 0.000000 25.027728 8.342576
Au 0.000000 25.027728 12.513864
Au 0.000000 25.027728 16.685152
Au 0.000000 25.027728 20.856440
Au 0.000000 25.027728 25.027728
Au 0.000000 25.027728 29.199016
Au 0.000000 25.027728 33.370304
Au 0.000000 25.027728 37.541592
Au 0.000000 25.027728 41.712880
Au 0.000000 25.027728 45.884168
Au 0.000000 25.027728 50.055456
Au 0.000000 25.027728 54.226744
Au 0.000000 25.027728 58.398032
Au 0.000000 25.027728 62.569320
Au 0.000000 25.027728 66.740608
Au 0.000000 25.027728 70.911896
Au 0.000000 25.027728 75.083184
Au 0.000000 25.027728 79.254472
Au 0.000000 25.027728 83.425760
Au 0.000000 25.027728 87.597048
Au 0.000000 25.027728 91.768336
Au 0.000000 25.027728 95.939624
Au 0.000000 25.027728 100.110912
Au 0.000000 25.027728 104.282200
Au 0.000000 25.027728 108.453488
Au 0.000000 25.027728 112.624776
Au 0.000000 25.027728 116.796064
Au 0.000000 25.027728 120.967352
Au 0.000000 25.027728 125.138640
Au 0.000000 25.027728 129.309928
Au 0.000000 25.027728 133.481216
Au 0.000000 25.027728 137.652504
Au 0.000000 25.027728 141.823792
Au 0.000000 25.027728 145.995080
Au 0.000000 25.027728 150.166368
Au 0.000000 27.113372 2.085644
Au 0.000000 27.113372 6.256932
Au 0.000000 27.113372 10.428220
Au 0.000000 27.113372 14.599508
Au 0.000000 27.113372 18.770796
Au 0.000000 27.113372 22.942084
Au 0.000000 27.113372 27.113372
Au 0.000000 27.113372 31.284660
Au 0.000000 27.113372 35.455948
Au 0.000000 27.113372 39.627236
Au 0.000000 27.113372 43.798524
Au 0.000000 27.113372 47.969812
Au 0.000000 27.113372 52.141100
Au 0.000000 27.113372 56.312388
Au 0.000000 27.113372 60.483676
Au 0.000000 27.113372 64.654964
Au 0.000000 27.113372 68.826252
Au 0.000000 27.113372 72.997540
Au 0.000000 27.113372 77.168828
Au 0.000000 27.113372 81.340116
Au 0.000000 27.113372 85.511404
Au 0.000000 27.113372 89.682692
Au 0.000000 27.113372 93.853980
Au 0.000000 27.113372 98.025268
Au 0.000000 27.113372 102.196556
Au 0.000000 27.113372 106.367844
Au 0.000000 27.113372 110.539132
Au 0.000000 27.113372 114.710420
Au 0.000000 27.113372 118.881708
Au 0.000000 27.113372 123.052996
Au 0.000000 27.113372 127.224284
Au 0.000000 27.113372 131.395572
Au 0.000000 27.113372 135.566860
Au 0.000000 27.113372 139.738148
Au 0.000000 27.113372 143.909436
Au 0.000000 27.113372 148.080724
Au 0.000000 29.199016 0.000000
Au 0.000000 29.199016 4.171288
Au 0.000000 29.199016 8.342576
Au 0.000000 29.199016 12.513864
Au 0.000000 29.199016 16.685152
Au 0.000000 29.199016 20.856440
Au 0.000000 29.199016 25.027728
Au 0.000000 29.199016 29.199016
Au 0.000000 29.199016 33.370304
Au 0.000000 29.199016 37.541592
Au 0.000000 29.199016 41.712880
Au 0.000000 29.199016 45.884168
Au 0.000000 29.199016 50.055456
Au 0.000000 29.199016 54.226744
Au 0.000000 29.199016 58.398032
Au 0.000000 29.199016 62.569320
Au 0.000000 29.199016 66.740608
Au 0.000000 29.199016 70.911896
Au 0.000000 29.199016 75.083184
Au 0.000000 29.199016 79.254472
Au 0.000000 29.199016 83.425760
Au 0.000000 29.199016 87.597048
Au 0.000000 29.199016 91.768336
Au 0.000000 29.199016 95.939624
Au 0.000000 29.199016 100.110912
Au 0.000000 29.199016 104.282200
Au 0.000000 29.199016 108.453488
Au 0.000000 29.199016 112.624776
Au 0.000000 29.199016 116.796064
Au 0.000000 29.199016 120.967352
Au 0.000000 29.199016 125.138640
Au 0.000000 29.199016 129.309928
Au 0.000000 29.199016 133.481216
Au 0.000000 29.199016 137.652504
Au 0.000000 29.199016 141.823792
Au 0.000000 29.199016 145.995080
Au 0.000000 29.199016 150.166368
Au 0.000000 31.284660 2.085644
Au 0.000000 31.284660 6.256932
Au 0.000000 31.284660 10.428220
Au 0.000000 31.284660 14.599508
Au 0.000000 31.284660 18.770796
Au 0.000000 31.284660 22.942084
Au 0.000000 31.284660 27.113372
Au 0.000000 31.284660 31.284660
Au 0.000000 31.284660 35.455948
Au 0.000000 31.284660 39.627236
Au 0.000000 31.284660 43.798524
Au 0.000000 31.284660 47.969812
Au 0.000000 31.284660 52.141100
Au 0.000000 31.284660 56.312388
Au 0.000000 31.284660 60.483676
Au 0.000000 31.284660 64.654964
Au 0.000000 31.284660 68.826252
Au 0.000000 31.284660 72.997540
Au 0.000000 31.284660 77.168828
Au 0.000000 31.284660 81.340116
Au 0.000000 31.284660 85.511404
Au 0.000000 31.284660 89.682692
Au 0.000000 31.284660 93.853980
Au 0.000000 31.284660 98.025268
Au 0.000000 31.284660 102.196556
Au 0.000000 31.284660 106.367844
Au 0.000000 31.284660 110.539132
Au 0.000000 31.284660 114.710420
Au 0.000000 31.284660 118.881708
Au 0.000000 31.284660 123.052996
Au 0.000000 31.284660 127.224284
Au 0.000000 31.284660 131.395572
Au 0.000000 31.284660 135.566860
Au 0.000000 31.284660 139.738148
Au 0.000000 31.284660 143.909436
Au 0.000000 31.284660 148.080724
Au 0.000000 33.370304 0.000000
Au 0.000000 33.370304 4.171288
Au 0.000000 33.370304 8.342576
Au 0.000000 33.370304 12.513864
Au 0.000000 33.370304 16.685152
Au 0.000000 33.370304 20.856440
Au 0.000000 33.370304 25.027728
Au 0.000000 33.370304 29.199016
Au 0.000000 33.370304 33.370304
Au 0.000000 33.370304 37.541592
Au 0.000000 33.370304 41.712880
Au 0.000000 33.370304 45.884168
Au 0.000000 33.370304 50.055456
Au 0.000000 33.370304 54.226744
Au 0.000000 33.370304 58.398032
Au 0.000000 33.370304 62.569320
Au 0.000000 33.370304 66.740608
Au 0.000000 33.370304 70.911896
Au 0.000000 33.370304 75.083184
Au 0.000000 33.370304 79.254472
Au 0.000000 33.370304 83.425760
Au 0.000000 33.370304 87.597048
Au 0.000000 33.370304 91.768336
Au 0.000000 33.370304 95.939624
Au 0.000000 33.370304 100.110912
Au 0.000000 33.370304 104.282200
Au 0.000000 33.370304 108.453488
Au 0.000000 33.370304 112.624776
Au 0.000000 33.370304 116.796064
Au 0.000000 33.370304 120.967352
Au 0.000000 33.370304 125.138640
Au 0.000000 33.370304 129.309928
Au 0.000000 33.370304 133.481216
Au 0.000000 33.370304 137.652504
Au 0.000000 33.370304 141.823792
Au 0.000000 33.370304 145.995080
Au 0.000000 33.370304 150.166368
Au 0.000000 35.455948 2.085644
Au 0.000000 35.455948 6.256932
Au 0.000000 35.455948 10.428220
Au 0.000000 35.455948 14.599508
Au 0.000000 35.455948 18.770796
Au 0.000000 35.455948 22.942084
Au 0.000000 35.455948 27.113372
Au 0.000000 35.455948 31.284660
Au 0.000000 35.455948 35.455948
Au 0.000000 35.455948 39.627236
Au 0.000000 35.455948 43.798524
Au 0.000000 35.455948 47.969812
Au 0.000000 35.455948 52.141100
Au 0.000000 35.455948 56.312388
Au 0.000000 35.455948 60.483676
Au 0.000000 35.455948 64.654964
Au 0.000000 35.455948 68.826252
Au 0.000000 35.455948 72.997540
Au 0.000000 35.455948 77.168828
Au 0.000000 35.455948 81.340116
Au 0.000000 35.455948 85.511404
Au 0.000000 35.455948 89.682692
Au 0.000000 35.455948 93.853980
Au 0.000000 35.455948 98.025268
Au 0.000000 35.455948 102.196556
Au 0.000000 35.455948 106.367844
Au 0.000000 35.455948 110.539132
Au 0.000000 35.455948 114.710420
Au 0.000000 35.455948 118.881708
Au 0.000000 35.455948 123.052996
Au 0.000000 35.455948 127.224284
Au 0.000000 35.455948 131.395572
Au 0.000000 35.455948 135.566860
Au 0.000000 35.455948 139.738148
Au 0.000000 35.455948 143.909436
Au 0.000000 35.455948 148.080724
Au 0.000000 37.541592 0.000000
Au 0.000000 37.541592 4.171288
Au 0.000000 37.541592 8.342576
Au 0.000000 37.541592 12.513864
Au 0.000000 37.541592 16.685152
Au 0.000000 37.541592 20.856440
Au 0.000000 37.541592 25.027728
Au 0.000000 37.541592 29.199016
Au 0.000000 37.541592 33.370304
Au 0.000000 37.541592 37.541592
Au 0.000000 37.541592 41.712880
Au 0.000000 37.541592 45.884168
Au 0.000000 37.541592 50.055456
Au 0.000000 37.541592 54.226744
Au 0.000000 37.541592 58.398032
Au 0.000000 37.541592 62.569320
Au 0.000000 37.541592 66.740608
Au 0.000000 37.541592 70.911896
Au 0.000000 37.541592 75.083184
Au 0.000000 37.541592 79.254472
Au 0.000000 37.541592 83.425760
Au 0.000000 37.541592 87.597048
Au 0.000000 37.541592 91.768336
Au 0.000000 37.541592 95.939624
Au 0.000000 37.541592 100.110912
Au 0.000000 37.541592 104.282200
Au 0.000000 37.541592 108.453488
Au 0.000000 37.541592 112.624776
Au 0.000000 37.541592 116.796064
Au 0.000000 37.541592 120.967352
Au 0.000000 37.541592 125.138640
Au 0.000000 37.541592 129.309928
Au 0.000000 37.541592 133.481216
Au 0.000000 37.541592 137.652504
Au 0.000000 37.541592 141.823792
Au 0.000000 37.541592 145.995080
Au 0.000000 37.541592 150.166368
Au 0.000000 39.627236 2.085644
Au 0.000000 39.627236 6.256932
Au 0.000000 39.627236 10.428220
Au 0.000000 39.627236 14.599508
Au 0.000000 39.627236 18.770796
Au 0.000000 39.627236 22.942084
Au 0.000000 39.627236 27.113372
Au 0.000000 39.627236 31.284660
Au 0.000000 39.627236 35.455948
Au 0.000000 39.627236 39.627236
Au 0.000000 39.627236 43.798524
Au 0.000000 39.627236 47.969812
Au 0.000000 39.627236 52.141100
Au 0.000000 39.627236 56.312388
Au 0.000000 39.627236 60.483676
Au 0.000000 39.627236 64.654964
Au 0.000000 39.627236 68.826252
Au 0.000000 39.627236 72.997540
Au 0.000000 39.627236 77.168828
Au 0.000000 39.627236 81.340116
Au 0.000000 39.627236 85.511404
Au 0.000000 39.627236 89.682692
Au 0.000000 39.627236 93.853980
Au 0.000000 39.627236 98.025268
Au 0.000000 39.627236 102.196556
Au 0.000000 39.627236 106.367844
Au 0.000000 39.627236 110.539132
Au 0.000000 39.627236 114.710420
Au 0.000000 39.627236 118.881708
Au 0.000000 39.627236 123.052996
Au 0.000000 39.627236 127.224284
Au 0.000000 39.627236 131.395572
Au 0.000000 39.627236 135.566860
Au 0.000000 39.627236 139.738148
Au 0.000000 39.627236 143.909436
Au 0.000000 39.627236 148.080724
Au 0.000000 41.712880 0.000000
Au 0.000000 41.712880 4.171288
Au 0.000000 41.712880 8.342576
Au 0.000000 41.712880 12.513864
Au 0.000000 41.712880 16.685152
Au 0.000000 41.712880 20.856440
Au 0.000000 41.712880 25.027728
Au 0.000000 41.712880 29.199016
Au 0.000000 41.712880 33.370304
Au 0.000000 41.712880 37.541592
Au 0.000000 41.712880 41.712880
Au 0.000000 41.712880 45.884168
Au 0.000000 41.712880 50.055456
Au 0.000000 41.712880 54.226744
Au 0.000000 41.712880 58.398032
Au 0.000000 41.712880 62.569320
Au 0.000000 41.712880 66.740608
Au 0.000000 41.712880 70.911896
Au 0.000000 41.712880 75.083184
Au 0.000000 41.712880 79.254472
Au 0.000000 41.712880 83.425760
Au 0.000000 41.712880 87.597048
Au 0.000000 41.712880 91.768336
Au 0.000000 41.712880 95.939624
Au 0.000000 41.712880 100.110912
Au 0.000000 41.712880 104.282200
Au 0.000000 41.712880 108.453488
Au 0.000000 41.712880 112.624776
Au 0.000000 41.712880 116.796064
Au 0.000000 41.712880 120.967352
Au 0.000000 41.712880 125.138640
Au 0.000000 41.712880 129.309928
Au 0.000000 41.712880 133.481216
Au 0.000000 41.712880 137.652504
Au 0.000000 41.712880 141.823792
Au 0.000000 41.712880 145.995080
Au 0.000000 41.712880 150.166368
Au 0.000000 43.798524 2.085644
Au 0.000000 43.798524 6.256932
Au 0.000000 43.798524 10.428220
Au 0.000000 43.798524 14.599508
Au 0.000000 43.798524 18.770796
Au 0.000000 43.798524 22.942084
Au 0.000000 43.798524 27.113372
Au 0.000000 43.798524 31.284660
Au 0.000000 43.798524 35.455948
Au 0.000000 43.798524 39.627236
Au 0.000000 43.798524 43.798524
Au 0.000000 43.798524 47.969812
Au 0.000000 43.798524 52.141100
Au 0.000000 43.798524 56.312388
Au 0.000000 43.798524 60.483676
Au 0.000000 43.798524 64.654964
Au 0.000000 43.798524 68.826252
Au 0.000000 43.798524 72.997540
Au 0.000000 43.798524 77.168828
Au 0.000000 43.798524 81.340116
Au 0.000000 43.798524 85.511404
Au 0.000000 43.798524 89.682692
Au 0.000000 43.798524 93.853980
Au 0.000000 43.798524 98.025268
Au 0.000000 43.798524 102.196556
Au 0.000000 43.798524 106.367844
Au 0.000000 43.798524 110.539132
Au 0.000000 43.798524 114.710420
Au 0.000000 43.798524 118.881708
Au 0.000000 43.798524 123.052996
Au 0.000000 43.798524 127.224284
Au 0.000000 43.798524 131.395572
Au 0.000000 43.798524 135.566860
Au 0.000000 43.798524 139.738148
Au 0.000000 43.798524 143.909436
Au 0.000000 43.798524 148.080724
Au 0.000000 45.884168 0.000000
Au 0.000000 45.884168 4.171288
Au 0.000000 45.884168 8.342576
Au 0.000000 45.884168 12.513864
Au 0.000000 45.884168 16.685152
Au 0.000000 45.884168 20.856440
Au 0.000000 45.884168 25.027728
Au 0.000000 45.884168 29.199016
Au 0.000000 45.884168 33.370304
Au 0.000000 45.884168 37.541592
Au 0.000000 45.884168 41.712880
Au 0.000000 45.884168 45.884168
Au 0.000000 45.884168 50.055456
Au 0.000000 45.884168 54.226744
Au 0.000000 45.884168 58.398032
Au 0.000000 45.884168 62.569320
Au 0.000000 45.884168 66.740608
Au 0.000000 45.884168 70.911896
Au 0.000000 45.884168 75.083184
Au 0.000000 45.884168 79.254472
Au 0.000000 45.884168 83.425760
Au 0.000000 45.884168 87.597048
Au 0.000000 45.884168 91.768336
Au 0.000000 45.884168 95.939624
Au 0.000000 45.884168 100.110912
Au 0.000000 45.884168 104.282200
Au 0.000000 45.884168 108.453488
Au 0.000000 45.884168 112.624776
Au 0.000000 45.884168 116.796064
Au 0.000000 45.884168 120.967352
Au 0.000000 45.884168 125.138640
Au 0.000000 45.884168 129.309928
Au 0.000000 45.884168 133.481216
Au 0.000000 45.884168 137.652504
Au 0.000000 45.884168 141.823792
Au 0.000000 45.884168 145.995080
Au 0.000000 45.884168 150.166368
Au 0.000000 47.969812 2.085644
Au 0.000000 47.969812 6.256932
Au 0.000000 47.969812 10.428220
Au 0.000000 47.969812 14.599508
Au 0.000000 47.969812 18.770796
Au 0.000000 47.969812 22.942084
Au 0.000000 47.969812 27.113372
Au 0.000000 47.969812 31.284660
Au 0.000000 47.969812 35.455948
Au 0.000000 47.969812 39.627236
Au 0.000000 47.969812 43.798524
Au 0.000000 47.969812 47.969812
Au 0.000000 47.969812 52.141100
Au 0.000000 47.969812 56.312388
Au 0.000000 47.969812 60.483676
Au 0.000000 47.969812 64.654964
Au 0.000000 47.969812 68.826252
Au 0.000000 47.969812 72.997540
Au 0.000000 47.969812 77.168828
Au 0.000000 47.969812 81.340116
Au 0.000000 47.969812 85.511404
Au 0.000000 47.969812 89.682692
Au 0.000000 47.969812 93.853980
Au 0.000000 47.969812 98.025268
Au 0.000000 47.969812 102.196556
Au 0.000000 47.969812 106.367844
Au 0.000000 47.969812 110.539132
Au 0.000000 47.969812 114.710420
Au 0.000000 47.969812 118.881708
Au 0.000000 47.969812 123.052996
Au 0.000000 47.969812 127.224284
Au 0.000000 47.969812 131.395572
Au 0.000000 47.969812 135.566860
Au 0.000000 47.969812 139.738148
Au 0.000000 47.969812 143.909436
Au 0.000000 47.969812 148.080724
Au 0.000000 50.055456 0.000000
Au 0.000000 50.055456 4.171288
Au 0.000000 50.055456 8.342576
Au 0.000000 50.055456 12.513864
Au 0.000000 50.055456 16.685152
Au 0.000000 50.055456 20.856440
Au 0.000000 50.055456 25.027728
Au 0.000000 50.055456 29.199016
Au 0.000000 50.055456 33.370304
Au 0.000000 50.055456 37.541592
Au 0.000000 50.055456 41.712880
Au 0.000000 50.055456 45.884168
Au 0.000000 50.055456 50.055456
Au 0.000000 50.055456 54.226744
Au 0.000000 50.055456 58.398032
Au 0.000000 50.055456 62.569320
Au 0.000000 50.055456 66.740608
Au 0.000000 50.055456 70.911896
Au 0.000000 50.055456 75.083184
Au 0.000000 50.055456 79.254472
Au 0.000000 50.055456 83.425760
Au 0.000000 50.055456 87.597048
Au 0.000000 50.055456 91.768336
Au 0.000000 50.055456 95.939624
Au 0.000000 50.055456 100.110912
Au 0.000000 50.055456 104.282200
Au 0.000000 50.055456 108.453488
Au 0.000000 50.055456 112.624776
Au 0.000000 50.055456 116.796064
Au 0.000000 50.055456 120.967352
Au 0.000000 50.055456 125.138640
Au 0.000000 50.055456 129.309928
Au 0.000000 50.055456 133.481216
Au 0.000000 50.055456 137.652504
Au 0.000000 50.055456 141.823792
Au 0.000000 50.055456 145.995080
Au 0.000000 50.055456 150.166368
Au 2.085644 0.000000 2.085644
Au 2.085644 0.000000 6.256932
Au 2.085644 0.000000 10.428220
Au 2.085644 0.000000 14.599508
Au 2.085644 0.000000 18.770796
Au 2.085644 0.000000 22.942084
Au 2.085644 0.000000 27.113372
Au 2.085644 0.000000 31.284660
Au 2.085644 0.000000 35.455948
Au 2.085644 0.000000 39.627236
Au 2.085644 0.000000 43.798524
Au 2.085644 0.000000 47.969812
Au 2.085644 0.000000 52.141100
Au 2.085644 0.000000 56.312388
Au 2.085644 0.000000 60.483676
Au 2.085644 0.000000 64.654964
Au 2.085644 0.000000 68.826252
Au 2.085644 0.000000 72.997540
Au 2.085644 0.000000 77.168828
Au 2.085644 0.000000 81.340116
Au 2.085644 0.000000 85.511404