39732
timestep 0 5.084700 5.084700 7.098580
Si 3.587511 3.587511 6.561636
Si 4.039541 1.045160 1.237701
Si 1.045160 4.039541 4.786992
Si 1.497190 1.497190 3.012347
O 4.606215 3.859176 5.323935
O 0.478486 1.225525 1.774645
O 3.859176 4.606215 0.700758
O 1.316826 3.020836 3.549291
O 1.225525 0.478486 4.250048
O 2.063865 3.767875 6.024693
O 3.020836 1.316826 2.475402
O 3.767875 2.063865 0.000000
Si 3.587511 8.672211 6.561636
Si 4.039541 6.129860 1.237701
Si 1.045160 9.124241 4.786992
Si 1.497190 6.581890 3.012347
O 4.606215 8.943876 5.323935
O 0.478486 6.310225 1.774645
O 3.859176 9.690915 0.700758
O 1.316826 8.105536 3.549291
O 1.225525 5.563186 4.250048
O 2.063865 8.852575 6.024693
O 3.020836 6.401526 2.475402
O 3.767875 7.148565 0.000000
Si 3.587511 13.756911 6.561636
Si 4.039541 11.214560 1.237701
Si 1.045160 14.208941 4.786992
Si 1.497190 11.666590 3.012347
O 4.606215 14.028576 5.323935
O 0.478486 11.394925 1.774645
O 3.859176 14.775615 0.700758
O 1.316826 13.190236 3.549291
O 1.225525 10.647886 4.250048
O 2.063865 13.937275 6.024693
O 3.020836 11.486226 2.475402
O 3.767875 12.233265 0.000000
Si 3.587511 18.841611 6.561636
Si 4.039541 16.299260 1.237701
Si 1.045160 19.293641 4.786992
Si 1.497190 16.751290 3.012347
O 4.606215 19.113276 5.323935
O 0.478486 16.479625 1.774645
O 3.859176 19.860315 0.700758
O 1.316826 18.274936 3.549291
O 1.225525 15.732586 4.250048
O 2.063865 19.021975 6.024693
O 3.020836 16.570926 2.475402
O 3.767875 17.317965 0.000000
Si 3.587511 23.926311 6.561636
Si 4.039541 21.383960 1.237701
Si 1.045160 24.378341 4.786992
Si 1.497190 21.835990 3.012347
O 4.606215 24.197976 5.323935
O 0.478486 21.564325 1.774645
O 3.859176 24.945015 0.700758
O 1.316826 23.359636 3.549291
O 1.225525 20.817286 4.250048
O 2.063865 24.106675 6.024693
O 3.020836 21.655626 2.475402
O 3.767875 22.402665 0.000000
Si 3.587511 29.011011 6.561636
Si 4.039541 26.468660 1.237701
Si 1.045160 29.463041 4.786992
Si 1.497190 26.920690 3.012347
O 4.606215 29.282676 5.323935
O 0.478486 26.649025 1.774645
O 3.859176 30.029715 0.700758
O 1.316826 28.444336 3.549291
O 1.225525 25.901986 4.250048
O 2.063865 29.191375 6.024693
O 3.020836 26.740326 2.475402
O 3.767875 27.487365 0.000000
Si 3.587511 34.095711 6.561636
Si 4.039541 31.553360 1.237701
Si 1.045160 34.547741 4.786992
Si 1.497190 32.005390 3.012347
O 4.606215 34.367376 5.323935
O 0.478486 31.733725 1.774645
O 3.859176 35.114415 0.700758
O 1.316826 33.529036 3.549291
O 1.225525 30.986686 4.250048
O 2.063865 34.276075 6.024693
O 3.020836 31.825026 2.475402
O 3.767875 32.572065 0.000000
Si 3.587511 39.180411 6.561636
Si 4.039541 36.638060 1.237701
Si 1.045160 39.632441 4.786992
Si 1.497190 37.090090 3.012347
O 4.606215 39.452076 5.323935
O 0.478486 36.818425 1.774645
O 3.859176 40.199115 0.700758
O 1.316826 38.613736 3.549291
O 1.225525 36.071386 4.250048
O 2.063865 39.360775 6.024693
O 3.020836 36.909726 2.475402
O 3.767875 37.656765 0.000000
Si 3.587511 44.265111 6.561636
Si 4.039541 41.722760 1.237701
Si 1.045160 44.717141 4.786992
Si 1.497190 42.174790 3.012347
O 4.606215 44.536776 5.323935
O 0.478486 41.903125 1.774645
O 3.859176 45.283815 0.700758
O 1.316826 43.698436 3.549291
O 1.225525 41.156086 4.250048
O 2.063865 44.445475 6.024693
O 3.020836 41.994426 2.475402
O 3.767875 42.741465 0.000000
Si 3.587511 49.349811 6.561636
Si 4.039541 46.807460 1.237701
Si 1.045160 49.801841 4.786992
Si 1.497190 47.259490 3.012347
O 4.606215 49.621476 5.323935
O 0.478486 46.987825 1.774645
O 3.859176 50.368515 0.700758
O 1.316826 48.783136 3.549291
O 1.225525 46.240786 4.250048
O 2.063865 49.530175 6.024693
O 3.020836 47.079126 2.475402
O 3.767875 47.826165 0.000000
Si 8.672211 3.587511 6.561636
Si 9.124241 1.045160 1.237701
Si 6.129860 4.039541 4.786992
Si 6.581890 1.497190 3.012347
O 9.690915 3.859176 5.323935
O 5.563186 1.225525 1.774645
O 8.943876 4.606215 0.700758
O 6.401526 3.020836 3.549291
O 6.310225 0.478486 4.250048
O 7.148565 3.767875 6.024693
O 8.105536 1.316826 2.475402
O 8.852575 2.063865 0.000000
Si 8.672211 8.672211 6.561636
Si 9.124241 6.129860 1.237701
Si 6.129860 9.124241 4.786992
Si 6.581890 6.581890 3.012347
O 9.690915 8.943876 5.323935
O 5.563186 6.310225 1.774645
O 8.943876 9.690915 0.700758
O 6.401526 8.105536 3.549291
O 6.310225 5.563186 4.250048
O 7.148565 8.852575 6.024693
O 8.105536 6.401526 2.475402
O 8.852575 7.148565 0.000000
Si 8.672211 13.756911 6.561636
Si 9.124241 11.214560 1.237701
Si 6.129860 14.208941 4.786992
Si 6.581890 11.666590 3.012347
O 9.690915 14.028576 5.323935
O 5.563186 11.394925 1.774645
O 8.943876 14.775615 0.700758
O 6.401526 13.190236 3.549291
O 6.310225 10.647886 4.250048
O 7.148565 13.937275 6.024693
O 8.105536 11.486226 2.475402
O 8.852575 12.233265 0.000000
Si 8.672211 18.841611 6.561636
Si 9.124241 16.299260 1.237701
Si 6.129860 19.293641 4.786992
Si 6.581890 16.751290 3.012347
O 9.690915 19.113276 5.323935
O 5.563186 16.479625 1.774645
O 8.943876 19.860315 0.700758
O 6.401526 18.274936 3.549291
O 6.310225 15.732586 4.250048
O 7.148565 19.021975 6.024693
O 8.105536 16.570926 2.475402
O 8.852575 17.317965 0.000000
Si 8.672211 23.926311 6.561636
Si 9.124241 21.383960 1.237701
Si 6.129860 24.378341 4.786992
Si 6.581890 21.835990 3.012347
O 9.690915 24.197976 5.323935
O 5.563186 21.564325 1.774645
O 8.943876 24.945015 0.700758
O 6.401526 23.359636 3.549291
O 6.310225 20.817286 4.250048
O 7.148565 24.106675 6.024693
O 8.105536 21.655626 2.475402
O 8.852575 22.402665 0.000000
Si 8.672211 29.011011 6.561636
Si 9.124241 26.468660 1.237701
Si 6.129860 29.463041 4.786992
Si 6.581890 26.920690 3.012347
O 9.690915 29.282676 5.323935
O 5.563186 26.649025 1.774645
O 8.943876 30.029715 0.700758
O 6.401526 28.444336 3.549291
O 6.310225 25.901986 4.250048
O 7.148565 29.191375 6.024693
O 8.105536 26.740326 2.475402
O 8.852575 27.487365 0.000000
Si 8.672211 34.095711 6.561636
Si 9.124241 31.553360 1.237701
Si 6.129860 34.547741 4.786992
Si 6.581890 32.005390 3.012347
O 9.690915 34.367376 5.323935
O 5.563186 31.733725 1.774645
O 8.943876 35.114415 0.700758
O 6.401526 33.529036 3.549291
O 6.310225 30.986686 4.250048
O 7.148565 34.276075 6.024693
O 8.105536 31.825026 2.475402
O 8.852575 32.572065 0.000000
Si 8.672211 39.180411 6.561636
Si 9.124241 36.638060 1.237701
Si 6.129860 39.632441 4.786992
Si 6.581890 37.090090 3.012347
O 9.690915 39.452076 5.323935
O 5.563186 36.818425 1.774645
O 8.943876 40.199115 0.700758
O 6.401526 38.613736 3.549291
O 6.310225 36.071386 4.250048
O 7.148565 39.360775 6.024693
O 8.105536 36.909726 2.475402
O 8.852575 37.656765 0.000000
Si 8.672211 44.265111 6.561636
Si 9.124241 41.722760 1.237701
Si 6.129860 44.717141 4.786992
Si 6.581890 42.174790 3.012347
O 9.690915 44.536776 5.323935
O 5.563186 41.903125 1.774645
O 8.943876 45.283815 0.700758
O 6.401526 43.698436 3.549291
O 6.310225 41.156086 4.250048
O 7.148565 44.445475 6.024693
O 8.105536 41.994426 2.475402
O 8.852575 42.741465 0.000000
Si 8.672211 49.349811 6.561636
Si 9.124241 46.807460 1.237701
Si 6.129860 49.801841 4.786992
Si 6.581890 47.259490 3.012347
O 9.690915 49.621476 5.323935
O 5.563186 46.987825 1.774645
O 8.943876 50.368515 0.700758
O 6.401526 48.783136 3.549291
O 6.310225 46.240786 4.250048
O 7.148565 49.530175 6.024693
O 8.105536 47.079126 2.475402
O 8.852575 47.826165 0.000000
Si 13.756911 3.587511 6.561636
Si 14.208941 1.045160 1.237701
Si 11.214560 4.039541 4.786992
Si 11.666590 1.497190 3.012347
O 14.775615 3.859176 5.323935
O 10.647886 1.225525 1.774645
O 14.028576 4.606215 0.700758
O 11.486226 3.020836 3.549291
O 11.394925 0.478486 4.250048
O 12.233265 3.767875 6.024693
O 13.190236 1.316826 2.475402
O 13.937275 2.063865 0.000000
Si 13.756911 8.672211 6.561636
Si 14.208941 6.129860 1.237701
Si 11.214560 9.124241 4.786992
Si 11.666590 6.581890 3.012347
O 14.775615 8.943876 5.323935
O 10.647886 6.310225 1.774645
O 14.028576 9.690915 0.700758
O 11.486226 8.105536 3.549291
O 11.394925 5.563186 4.250048
O 12.233265 8.852575 6.024693
O 13.190236 6.401526 2.475402
O 13.937275 7.148565 0.000000
Si 13.756911 13.756911 6.561636
Si 14.208941 11.214560 1.237701
Si 11.214560 14.208941 4.786992
Si 11.666590 11.666590 3.012347
O 14.775615 14.028576 5.323935
O 10.647886 11.394925 1.774645
O 14.028576 14.775615 0.700758
O 11.486226 13.190236 3.549291
O 11.394925 10.647886 4.250048
O 12.233265 13.937275 6.024693
O 13.190236 11.486226 2.475402
O 13.937275 12.233265 0.000000
Si 13.756911 18.841611 6.561636
Si 14.208941 16.299260 1.237701
Si 11.214560 19.293641 4.786992
Si 11.666590 16.751290 3.012347
O 14.775615 19.113276 5.323935
O 10.647886 16.479625 1.774645
O 14.028576 19.860315 0.700758
O 11.486226 18.274936 3.549291
O 11.394925 15.732586 4.250048
O 12.233265 19.021975 6.024693
O 13.190236 16.570926 2.475402
O 13.937275 17.317965 0.000000
Si 13.756911 23.926311 6.561636
Si 14.208941 21.383960 1.237701
Si 11.214560 24.378341 4.786992
Si 11.666590 21.835990 3.012347
O 14.775615 24.197976 5.323935
O 10.647886 21.564325 1.774645
O 14.028576 24.945015 0.700758
O 11.486226 23.359636 3.549291
O 11.394925 20.817286 4.250048
O 12.233265 24.106675 6.024693
O 13.190236 21.655626 2.475402
O 13.937275 22.402665 0.000000
Si 13.756911 29.011011 6.561636
Si 14.208941 26.468660 1.237701
Si 11.214560 29.463041 4.786992
Si 11.666590 26.920690 3.012347
O 14.775615 29.282676 5.323935
O 10.647886 26.649025 1.774645
O 14.028576 30.029715 0.700758
O 11.486226 28.444336 3.549291
O 11.394925 25.901986 4.250048
O 12.233265 29.191375 6.024693
O 13.190236 26.740326 2.475402
O 13.937275 27.487365 0.000000
Si 13.756911 34.095711 6.561636
Si 14.208941 31.553360 1.237701
Si 11.214560 34.547741 4.786992
Si 11.666590 32.005390 3.012347
O 14.775615 34.367376 5.323935
O 10.647886 31.733725 1.774645
O 14.028576 35.114415 0.700758
O 11.486226 33.529036 3.549291
O 11.394925 30.986686 4.250048
O 12.233265 34.276075 6.024693
O 13.190236 31.825026 2.475402
O 13.937275 32.572065 0.000000
Si 13.756911 39.180411 6.561636
Si 14.208941 36.638060 1.237701
Si 11.214560 39.632441 4.786992
Si 11.666590 37.090090 3.012347
O 14.775615 39.452076 5.323935
O 10.647886 36.818425 1.774645
O 14.028576 40.199115 0.700758
O 11.486226 38.613736 3.549291
O 11.394925 36.071386 4.250048
O 12.233265 39.360775 6.024693
O 13.190236 36.909726 2.475402
O 13.937275 37.656765 0.000000
Si 13.756911 44.265111 6.561636
Si 14.208941 41.722760 1.237701
Si 11.214560 44.717141 4.786992
Si 11.666590 42.174790 3.012347
O 14.775615 44.536776 5.323935
O 10.647886 41.903125 1.774645
O 14.028576 45.283815 0.700758
O 11.486226 43.698436 3.549291
O 11.394925 41.156086 4.250048
O 12.233265 44.445475 6.024693
O 13.190236 41.994426 2.475402
O 13.937275 42.741465 0.000000
Si 13.756911 49.349811 6.561636
Si 14.208941 46.807460 1.237701
Si 11.214560 49.801841 4.786992
Si 11.666590 47.259490 3.012347
O 14.775615 49.621476 5.323935
O 10.647886 46.987825 1.774645
O 14.028576 50.368515 0.700758
O 11.486226 48.783136 3.549291
O 11.394925 46.240786 4.250048
O 12.233265 49.530175 6.024693
O 13.190236 47.079126 2.475402
O 13.937275 47.826165 0.000000
Si 18.841611 3.587511 6.561636
Si 19.293641 1.045160 1.237701
Si 16.299260 4.039541 4.786992
Si 16.751290 1.497190 3.012347
O 19.860315 3.859176 5.323935
O 15.732586 1.225525 1.774645
O 19.113276 4.606215 0.700758
O 16.570926 3.020836 3.549291
O 16.479625 0.478486 4.250048
O 17.317965 3.767875 6.024693
O 18.274936 1.316826 2.475402
O 19.021975 2.063865 0.000000
Si 18.841611 8.672211 6.561636
Si 19.293641 6.129860 1.237701
Si 16.299260 9.124241 4.786992
Si 16.751290 6.581890 3.012347
O 19.860315 8.943876 5.323935
O 15.732586 6.310225 1.774645
O 19.113276 9.690915 0.700758
O 16.570926 8.105536 3.549291
O 16.479625 5.563186 4.250048
O 17.317965 8.852575 6.024693
O 18.274936 6.401526 2.475402
O 19.021975 7.148565 0.000000
Si 18.841611 13.756911 6.561636
Si 19.293641 11.214560 1.237701
Si 16.299260 14.208941 4.786992
Si 16.751290 11.666590 3.012347
O 19.860315 14.028576 5.323935
O 15.732586 11.394925 1.774645
O 19.113276 14.775615 0.700758
O 16.570926 13.190236 3.549291
O 16.479625 10.647886 4.250048
O 17.317965 13.937275 6.024693
O 18.274936 11.486226 2.475402
O 19.021975 12.233265 0.000000
Si 18.841611 18.841611 6.561636
Si 19.293641 16.299260 1.237701
Si 16.299260 19.293641 4.786992
Si 16.751290 16.751290 3.012347
O 19.860315 19.113276 5.323935
O 15.732586 16.479625 1.774645
O 19.113276 19.860315 0.700758
O 16.570926 18.274936 3.549291
O 16.479625 15.732586 4.250048
O 17.317965 19.021975 6.024693
O 18.274936 16.570926 2.475402
O 19.021975 17.317965 0.000000
Si 18.841611 23.926311 6.561636
Si 19.293641 21.383960 1.237701
Si 16.299260 24.378341 4.786992
Si 16.751290 21.835990 3.012347
O 19.860315 24.197976 5.323935
O 15.732586 21.564325 1.774645
O 19.113276 24.945015 0.700758
O 16.570926 23.359636 3.549291
O 16.479625 20.817286 4.250048
O 17.317965 24.106675 6.024693
O 18.274936 21.655626 2.475402
O 19.021975 22.402665 0.000000
Si 18.841611 29.011011 6.561636
Si 19.293641 26.468660 1.237701
Si 16.299260 29.463041 4.786992
Si 16.751290 26.920690 3.012347
O 19.860315 29.282676 5.323935
O 15.732586 26.649025 1.774645
O 19.113276 30.029715 0.700758
O 16.570926 28.444336 3.549291
O 16.479625 25.901986 4.250048
O 17.317965 29.191375 6.024693
O 18.274936 26.740326 2.475402
O 19.021975 27.487365 0.000000
Si 18.841611 34.095711 6.561636
Si 19.293641 31.553360 1.237701
Si 16.299260 34.547741 4.786992
Si 16.751290 32.005390 3.012347
O 19.860315 34.367376 5.323935
O 15.732586 31.733725 1.774645
O 19.113276 35.114415 0.700758
O 16.570926 33.529036 3.549291
O 16.479625 30.986686 4.250048
O 17.317965 34.276075 6.024693
O 18.274936 31.825026 2.475402
O 19.021975 32.572065 0.000000
Si 18.841611 39.180411 6.561636
Si 19.293641 36.638060 1.237701
Si 16.299260 39.632441 4.786992
Si 16.751290 37.090090 3.012347
O 19.860315 39.452076 5.323935
O 15.732586 36.818425 1.774645
O 19.113276 40.199115 0.700758
O 16.570926 38.613736 3.549291
O 16.479625 36.071386 4.250048
O 17.317965 39.360775 6.024693
O 18.274936 36.909726 2.475402
O 19.021975 37.656765 0.000000
Si 18.841611 44.265111 6.561636
Si 19.293641 41.722760 1.237701
Si 16.299260 44.717141 4.786992
Si 16.751290 42.174790 3.012347
O 19.860315 44.536776 5.323935
O 15.732586 41.903125 1.774645
O 19.113276 45.283815 0.700758
O 16.570926 43.698436 3.549291
O 16.479625 41.156086 4.250048
O 17.317965 44.445475 6.024693
O 18.274936 41.994426 2.475402
O 19.021975 42.741465 0.000000
Si 18.841611 49.349811 6.561636
Si 19.293641 46.807460 1.237701
Si 16.299260 49.801841 4.786992
Si 16.751290 47.259490 3.012347
O 19.860315 49.621476 5.323935
O 15.732586 46.987825 1.774645
O 19.113276 50.368515 0.700758
O 16.570926 48.783136 3.549291
O 16.479625 46.240786 4.250048
O 17.317965 49.530175 6.024693
O 18.274936 47.079126 2.475402
O 19.021975 47.826165 0.000000
Si 23.926311 3.587511 6.561636
Si 24.378341 1.045160 1.237701
Si 21.383960 4.039541 4.786992
Si 21.835990 1.497190 3.012347
O 24.945015 3.859176 5.323935
O 20.817286 1.225525 1.774645
O 24.197976 4.606215 0.700758
O 21.655626 3.020836 3.549291
O 21.564325 0.478486 4.250048
O 22.402665 3.767875 6.024693
O 23.359636 1.316826 2.475402
O 24.106675 2.063865 0.000000
Si 23.926311 8.672211 6.561636
Si 24.378341 6.129860 1.237701
Si 21.383960 9.124241 4.786992
Si 21.835990 6.581890 3.012347
O 24.945015 8.943876 5.323935
O 20.817286 6.310225 1.774645
O 24.197976 9.690915 0.700758
O 21.655626 8.105536 3.549291
O 21.564325 5.563186 4.250048
O 22.402665 8.852575 6.024693
O 23.359636 6.401526 2.475402
O 24.106675 7.148565 0.000000
Si 23.926311 13.756911 6.561636
Si 24.378341 11.214560 1.237701
Si 21.383960 14.208941 4.786992
Si 21.835990 11.666590 3.012347
O 24.945015 14.028576 5.323935
O 20.817286 11.394925 1.774645
O 24.197976 14.775615 0.700758
O 21.655626 13.190236 3.549291
O 21.564325 10.647886 4.250048
O 22.402665 13.937275 6.024693
O 23.359636 11.486226 2.475402
O 24.106675 12.233265 0.000000
Si 23.926311 18.841611 6.561636
Si 24.378341 16.299260 1.237701
Si 21.383960 19.293641 4.786992
Si 21.835990 16.751290 3.012347
O 24.945015 19.113276 5.323935
O 20.817286 16.479625 1.774645
O 24.197976 19.860315 0.700758
O 21.655626 18.274936 3.549291
O 21.564325 15.732586 4.250048
O 22.402665 19.021975 6.024693
O 23.359636 16.570926 2.475402
O 24.106675 17.317965 0.000000
Si 23.926311 23.926311 6.561636
Si 24.378341 21.383960 1.237701
Si 21.383960 24.378341 4.786992
Si 21.835990 21.835990 3.012347
O 24.945015 24.197976 5.323935
O 20.817286 21.564325 1.774645
O 24.197976 24.945015 0.700758
O 21.655626 23.359636 3.549291
O 21.564325 20.817286 4.250048
O 22.402665 24.106675 6.024693
O 23.359636 21.655626 2.475402
O 24.106675 22.402665 0.000000
Si 23.926311 29.011011 6.561636
Si 24.378341 26.468660 1.237701
Si 21.383960 29.463041 4.786992
Si 21.835990 26.920690 3.012347
O 24.945015 29.282676 5.323935
O 20.817286 26.649025 1.774645
O 24.197976 30.029715 0.700758
O 21.655626 28.444336 3.549291
O 21.564325 25.901986 4.250048
O 22.402665 29.191375 6.024693
O 23.359636 26.740326 2.475402
O 24.106675 27.487365 0.000000
Si 23.926311 34.095711 6.561636
Si 24.378341 31.553360 1.237701
Si 21.383960 34.547741 4.786992
Si 21.835990 32.005390 3.012347
O 24.945015 34.367376 5.323935
O 20.817286 31.733725 1.774645
O 24.197976 35.114415 0.700758
O 21.655626 33.529036 3.549291
O 21.564325 30.986686 4.250048
O 22.402665 34.276075 6.024693
O 23.359636 31.825026 2.475402
O 24.106675 32.572065 0.000000
Si 23.926311 39.180411 6.561636
Si 24.378341 36.638060 1.237701
Si 21.383960 39.632441 4.786992
Si 21.835990 37.090090 3.012347
O 24.945015 39.452076 5.323935
O 20.817286 36.818425 1.774645
O 24.197976 40.199115 0.700758
O 21.655626 38.613736 3.549291
O 21.564325 36.071386 4.250048
O 22.402665 39.360775 6.024693
O 23.359636 36.909726 2.475402
O 24.106675 37.656765 0.000000
Si 23.926311 44.265111 6.561636
Si 24.378341 41.722760 1.237701
Si 21.383960 44.717141 4.786992
Si 21.835990 42.174790 3.012347
O 24.945015 44.536776 5.323935
O 20.817286 41.903125 1.774645
O 24.197976 45.283815 0.700758
O 21.655626 43.698436 3.549291
O 21.564325 41.156086 4.250048
O 22.402665 44.445475 6.024693
O 23.359636 41.994426 2.475402
O 24.106675 42.741465 0.000000
Si 23.926311 49.349811 6.561636
Si 24.378341 46.807460 1.237701
Si 21.383960 49.801841 4.786992
Si 21.835990 47.259490 3.012347
O 24.945015 49.621476 5.323935
O 20.817286 46.987825 1.774645
O 24.197976 50.368515 0.700758
O 21.655626 48.783136 3.549291
O 21.564325 46.240786 4.250048
O 22.402665 49.530175 6.024693
O 23.359636 47.079126 2.475402
O 24.106675 47.826165 0.000000
Si 29.011011 3.587511 6.561636
Si 29.463041 1.045160 1.237701
Si 26.468660 4.039541 4.786992
Si 26.920690 1.497190 3.012347
O 30.029715 3.859176 5.323935
O 25.901986 1.225525 1.774645
O 29.282676 4.606215 0.700758
O 26.740326 3.020836 3.549291
O 26.649025 0.478486 4.250048
O 27.487365 3.767875 6.024693
O 28.444336 1.316826 2.475402
O 29.191375 2.063865 0.000000
Si 29.011011 8.672211 6.561636
Si 29.463041 6.129860 1.237701
Si 26.468660 9.124241 4.786992
Si 26.920690 6.581890 3.012347
O 30.029715 8.943876 5.323935
O 25.901986 6.310225 1.774645
O 29.282676 9.690915 0.700758
O 26.740326 8.105536 3.549291
O 26.649025 5.563186 4.250048
O 27.487365 8.852575 6.024693
O 28.444336 6.401526 2.475402
O 29.191375 7.148565 0.000000
Si 29.011011 13.756911 6.561636
Si 29.463041 11.214560 1.237701
Si 26.468660 14.208941 4.786992
Si 26.920690 11.666590 3.012347
O 30.029715 14.028576 5.323935
O 25.901986 11.394925 1.774645
O 29.282676 14.775615 0.700758
O 26.740326 13.190236 3.549291
O 26.649025 10.647886 4.250048
O 27.487365 13.937275 6.024693
O 28.444336 11.486226 2.475402
O 29.191375 12.233265 0.000000
Si 29.011011 18.841611 6.561636
Si 29.463041 16.299260 1.237701
Si 26.468660 19.293641 4.786992
Si 26.920690 16.751290 3.012347
O 30.029715 19.113276 5.323935
O 25.901986 16.479625 1.774645
O 29.282676 19.860315 0.700758
O 26.740326 18.274936 3.549291
O 26.649025 15.732586 4.250048
O 27.487365 19.021975 6.024693
O 28.444336 16.570926 2.475402
O 29.191375 17.317965 0.000000
Si 29.011011 23.926311 6.561636
Si 29.463041 21.383960 1.237701
Si 26.468660 24.378341 4.786992
Si 26.920690 21.835990 3.012347
O 30.029715 24.197976 5.323935
O 25.901986 21.564325 1.774645
O 29.282676 24.945015 0.700758
O 26.740326 23.359636 3.549291
O 26.649025 20.817286 4.250048
O 27.487365 24.106675 6.024693
O 28.444336 21.655626 2.475402
O 29.191375 22.402665 0.000000
Si 29.011011 29.011011 6.561636
Si 29.463041 26.468660 1.237701
Si 26.468660 29.463041 4.786992
Si 26.920690 26.920690 3.012347
O 30.029715 29.282676 5.323935
O 25.901986 26.649025 1.774645
O 29.282676 30.029715 0.700758
O 26.740326 28.444336 3.549291
O 26.649025 25.901986 4.250048
O 27.487365 29.191375 6.024693
O 28.444336 26.740326 2.475402
O 29.191375 27.487365 0.000000
Si 29.011011 34.095711 6.561636
Si 29.463041 31.553360 1.237701
Si 26.468660 34.547741 4.786992
Si 26.920690 32.005390 3.012347
O 30.029715 34.367376 5.323935
O 25.901986 31.733725 1.774645
O 29.282676 35.114415 0.700758
O 26.740326 33.529036 3.549291
O 26.649025 30.986686 4.250048
O 27.487365 34.276075 6.024693
O 28.444336 31.825026 2.475402
O 29.191375 32.572065 0.000000
Si 29.011011 39.180411 6.561636
Si 29.463041 36.638060 1.237701
Si 26.468660 39.632441 4.786992
Si 26.920690 37.090090 3.012347
O 30.029715 39.452076 5.323935
O 25.901986 36.818425 1.774645
O 29.282676 40.199115 0.700758
O 26.740326 38.613736 3.549291
O 26.649025 36.071386 4.250048
O 27.487365 39.360775 6.024693
O 28.444336 36.909726 2.475402
O 29.191375 37.656765 0.000000
Si 29.011011 44.265111 6.561636
Si 29.463041 41.722760 1.237701
Si 26.468660 44.717141 4.786992
Si 26.920690 42.174790 3.012347
O 30.029715 44.536776 5.323935
O 25.901986 41.903125 1.774645
O 29.282676 45.283815 0.700758
O 26.740326 43.698436 3.549291
O 26.649025 41.156086 4.250048
O 27.487365 44.445475 6.024693
O 28.444336 41.994426 2.475402
O 29.191375 42.741465 0.000000
Si 29.011011 49.349811 6.561636
Si 29.463041 46.807460 1.237701
Si 26.468660 49.801841 4.786992
Si 26.920690 47.259490 3.012347
O 30.029715 49.621476 5.323935
O 25.901986 46.987825 1.774645
O 29.282676 50.368515 0.700758
O 26.740326 48.783136 3.549291
O 26.649025 46.240786 4.250048
O 27.487365 49.530175 6.024693
O 28.444336 47.079126 2.475402
O 29.191375 47.826165 0.000000
Si 34.095711 3.587511 6.561636
Si 34.547741 1.045160 1.237701
Si 31.553360 4.039541 4.786992
Si 32.005390 1.497190 3.012347
O 35.114415 3.859176 5.323935
O 30.986686 1.225525 1.774645
O 34.367376 4.606215 0.700758
O 31.825026 3.020836 3.549291
O 31.733725 0.478486 4.250048
O 32.572065 3.767875 6.024693
O 33.529036 1.316826 2.475402
O 34.276075 2.063865 0.000000
Si 34.095711 8.672211 6.561636
Si 34.547741 6.129860 1.237701
Si 31.553360 9.124241 4.786992
Si 32.005390 6.581890 3.012347
O 35.114415 8.943876 5.323935
O 30.986686 6.310225 1.774645
O 34.367376 9.690915 0.700758
O 31.825026 8.105536 3.549291
O 31.733725 5.563186 4.250048
O 32.572065 8.852575 6.024693
O 33.529036 6.401526 2.475402
O 34.276075 7.148565 0.000000
Si 34.095711 13.756911 6.561636
Si 34.547741 11.214560 1.237701
Si 31.553360 14.208941 4.786992
Si 32.005390 11.666590 3.012347
O 35.114415 14.028576 5.323935
O 30.986686 11.394925 1.774645
O 34.367376 14.775615 0.700758
O 31.825026 13.190236 3.549291
O 31.733725 10.647886 4.250048
O 32.572065 13.937275 6.024693
O 33.529036 11.486226 2.475402
O 34.276075 12.233265 0.000000
Si 34.095711 18.841611 6.561636
Si 34.547741 16.299260 1.237701
Si 31.553360 19.293641 4.786992
Si 32.005390 16.751290 3.012347
O 35.114415 19.113276 5.323935
O 30.986686 16.479625 1.774645
O 34.367376 19.860315 0.700758
O 31.825026 18.274936 3.549291
O 31.733725 15.732586 4.250048
O 32.572065 19.021975 6.024693
O 33.529036 16.570926 2.475402
O 34.276075 17.317965 0.000000
Si 34.095711 23.926311 6.561636
Si 34.547741 21.383960 1.237701
Si 31.553360 24.378341 4.786992
Si 32.005390 21.835990 3.012347
O 35.114415 24.197976 5.323935
O 30.986686 21.564325 1.774645
O 34.367376 24.945015 0.700758
O 31.825026 23.359636 3.549291
O 31.733725 20.817286 4.250048
O 32.572065 24.106675 6.024693
O 33.529036 21.655626 2.475402
O 34.276075 22.402665 0.000000
Si 34.095711 29.011011 6.561636
Si 34.547741 26.468660 1.237701
Si 31.553360 29.463041 4.786992
Si 32.005390 26.920690 3.012347
O 35.114415 29.282676 5.323935
O 30.986686 26.649025 1.774645
O 34.367376 30.029715 0.700758
O 31.825026 28.444336 3.549291
O 31.733725 25.901986 4.250048
O 32.572065 29.191375 6.024693
O 33.529036 26.740326 2.475402
O 34.276075 27.487365 0.000000
Si 34.095711 34.095711 6.561636
Si 34.547741 31.553360 1.237701
Si 31.553360 34.547741 4.786992
Si 32.005390 32.005390 3.012347
O 35.114415 34.367376 5.323935
O 30.986686 31.733725 1.774645
O 34.367376 35.114415 0.700758
O 31.825026 33.529036 3.549291
O 31.733725 30.986686 4.250048
O 32.572065 34.276075 6.024693
O 33.529036 31.825026 2.475402
O 34.276075 32.572065 0.000000
Si 34.095711 39.180411 6.561636
Si 34.547741 36.638060 1.237701
Si 31.553360 39.632441 4.786992
Si 32.005390 37.090090 3.012347
O 35.114415 39.452076 5.323935
O 30.986686 36.818425 1.774645
O 34.367376 40.199115 0.700758
O 31.825026 38.613736 3.549291
O 31.733725 36.071386 4.250048
O 32.572065 39.360775 6.024693
O 33.529036 36.909726 2.475402
O 34.276075 37.656765 0.000000
Si 34.095711 44.265111 6.561636
Si 34.547741 41.722760 1.237701
Si 31.553360 44.717141 4.786992
Si 32.005390 42.174790 3.012347
O 35.114415 44.536776 5.323935
O 30.986686 41.903125 1.774645
O 34.367376 45.283815 0.700758
O 31.825026 43.698436 3.549291
O 31.733725 41.156086 4.250048
O 32.572065 44.445475 6.024693
O 33.529036 41.994426 2.475402
O 34.276075 42.741465 0.000000
Si 34.095711 49.349811 6.561636
Si 34.547741 46.807460 1.237701
Si 31.553360 49.801841 4.786992
Si 32.005390 47.259490 3.012347
O 35.114415 49.621476 5.323935
O 30.986686 46.987825 1.774645
O 34.367376 50.368515 0.700758
O 31.825026 48.783136 3.549291
O 31.733725 46.240786 4.250048
O 32.572065 49.530175 6.024693
O 33.529036 47.079126 2.475402
O 34.276075 47.826165 0.000000
Si 39.180411 3.587511 6.561636
Si 39.632441 1.045160 1.237701
Si 36.638060 4.039541 4.786992
Si 37.090090 1.497190 3.012347
O 40.199115 3.859176 5.323935
O 36.071386 1.225525 1.774645
O 39.452076 4.606215 0.700758
O 36.909726 3.020836 3.549291
O 36.818425 0.478486 4.250048
O 37.656765 3.767875 6.024693
O 38.613736 1.316826 2.475402
O 39.360775 2.063865 0.000000
Si 39.180411 8.672211 6.561636
Si 39.632441 6.129860 1.237701
Si 36.638060 9.124241 4.786992
Si 37.090090 6.581890 3.012347
O 40.199115 8.943876 5.323935
O 36.071386 6.310225 1.774645
O 39.452076 9.690915 0.700758
O 36.909726 8.105536 3.549291
O 36.818425 5.563186 4.250048
O 37.656765 8.852575 6.024693
O 38.613736 6.401526 2.475402
O 39.360775 7.148565 0.000000
Si 39.180411 13.756911 6.561636
Si 39.632441 11.214560 1.237701
Si 36.638060 14.208941 4.786992
Si 37.090090 11.666590 3.012347
O 40.199115 14.028576 5.323935
O 36.071386 11.394925 1.774645
O 39.452076 14.775615 0.700758
O 36.909726 13.190236 3.549291
O 36.818425 10.647886 4.250048
O 37.656765 13.937275 6.024693
O 38.613736 11.486226 2.475402
O 39.360775 12.233265 0.000000
Si 39.180411 18.841611 6.561636
Si 39.632441 16.299260 1.237701
Si 36.638060 19.293641 4.786992
Si 37.090090 16.751290 3.012347
O 40.199115 19.113276 5.323935
O 36.071386 16.479625 1.774645
O 39.452076 19.860315 0.700758
O 36.909726 18.274936 3.549291
O 36.818425 15.732586 4.250048
O 37.656765 19.021975 6.024693
O 38.613736 16.570926 2.475402
O 39.360775 17.317965 0.000000
Si 39.180411 23.926311 6.561636
Si 39.632441 21.383960 1.237701
Si 36.638060 24.378341 4.786992
Si 37.090090 21.835990 3.012347
O 40.199115 24.197976 5.323935
O 36.071386 21.564325 1.774645
O 39.452076 24.945015 0.700758
O 36.909726 23.359636 3.549291
O 36.818425 20.817286 4.250048
O 37.656765 24.106675 6.024693
O 38.613736 21.655626 2.475402
O 39.360775 22.402665 0.000000
Si 39.180411 29.011011 6.561636
Si 39.632441 26.468660 1.237701
Si 36.638060 29.463041 4.786992
Si 37.090090 26.920690 3.012347
O 40.199115 29.282676 5.323935
O 36.071386 26.649025 1.774645
O 39.452076 30.029715 0.700758
O 36.909726 28.444336 3.549291
O 36.818425 25.901986 4.250048
O 37.656765 29.191375 6.024693
O 38.613736 26.740326 2.475402
O 39.360775 27.487365 0.000000
Si 39.180411 34.095711 6.561636
Si 39.632441 31.553360 1.237701
Si 36.638060 34.547741 4.786992
Si 37.090090 32.005390 3.012347
O 40.199115 34.367376 5.323935
O 36.071386 31.733725 1.774645
O 39.452076 35.114415 0.700758
O 36.909726 33.529036 3.549291
O 36.818425 30.986686 4.250048
O 37.656765 34.276075 6.024693
O 38.613736 31.825026 2.475402
O 39.360775 32.572065 0.000000
Si 39.180411 39.180411 6.561636
Si 39.632441 36.638060 1.237701
Si 36.638060 39.632441 4.786992
Si 37.090090 37.090090 3.012347
O 40.199115 39.452076 5.323935
O 36.071386 36.818425 1.774645
O 39.452076 40.199115 0.700758
O 36.909726 38.613736 3.549291
O 36.818425 36.071386 4.250048
O 37.656765 39.360775 6.024693
O 38.613736 36.909726 2.475402
O 39.360775 37.656765 0.000000
Si 39.180411 44.265111 6.561636
Si 39.632441 41.722760 1.237701
Si 36.638060 44.717141 4.786992
Si 37.090090 42.174790 3.012347
O 40.199115 44.536776 5.323935
O 36.071386 41.903125 1.774645
O 39.452076 45.283815 0.700758
O 36.909726 43.698436 3.549291
O 36.818425 41.156086 4.250048
O 37.656765 44.445475 6.024693
O 38.613736 41.994426 2.475402
O 39.360775 42.741465 0.000000
Si 39.180411 49.349811 6.561636
Si 39.632441 46.807460 1.237701
Si 36.638060 49.801841 4.786992
Si 37.090090 47.259490 3.012347
O 40.199115 49.621476 5.323935
O 36.071386 46.987825 1.774645
O 39.452076 50.368515 0.700758
O 36.909726 48.783136 3.549291
O 36.818425 46.240786 4.250048
O 37.656765 49.530175 6.024693
O 38.613736 47.079126 2.475402
O 39.360775 47.826165 0.000000
Si 44.265111 3.587511 6.561636
Si 44.717141 1.045160 1.237701
Si 41.722760 4.039541 4.786992
Si 42.174790 1.497190 3.012347
O 45.283815 3.859176 5.323935
O 41.156086 1.225525 1.774645
O 44.536776 4.606215 0.700758
O 41.994426 3.020836 3.549291
O 41.903125 0.478486 4.250048
O 42.741465 3.767875 6.024693