
39732 atoms

4 atom types

0.000000 5.084700 xlo xhi
0.000000 5.084700 ylo yhi
0.000000 7.098580 zlo zhi

Masses

1 28.085500
2 15.999400
3 15.999400
4 1.008000

Atoms

1 1 1 0.0 3.587511 3.587511 6.561636
2 1 1 0.0 4.039541 1.045160 1.237701
3 1 1 0.0 1.045160 4.039541 4.786992
4 1 1 0.0 1.497190 1.497190 3.012347
5 1 2 0.0 4.606215 3.859176 5.323935
6 1 3 0.0 0.478486 1.225525 1.774645
7 1 2 0.0 3.859176 4.606215 0.700758
8 1 2 0.0 1.316826 3.020836 3.549291
9 1 2 0.0 1.225525 0.478486 4.250048
10 1 2 0.0 2.063865 3.767875 6.024693
11 1 2 0.0 3.020836 1.316826 2.475402
12 1 2 0.0 3.767875 2.063865 0.000000
13 1 1 0.0 3.587511 8.672211 6.561636
14 1 1 0.0 4.039541 6.129860 1.237701
15 1 1 0.0 1.045160 9.124241 4.786992
16 1 1 0.0 1.497190 6.581890 3.012347
17 1 2 0.0 4.606215 8.943876 5.323935
18 1 2 0.0 0.478486 6.310225 1.774645
19 1 2 0.0 3.859176 9.690915 0.700758
20 1 2 0.0 1.316826 8.105536 3.549291
21 1 2 0.0 1.225525 5.563186 4.250048
22 1 2 0.0 2.063865 8.852575 6.024693
23 1 2 0.0 3.020836 6.401526 2.475402
24 1 2 0.0 3.767875 7.148565 0.000000
25 1 1 0.0 3.587511 13.756911 6.561636
26 1 1 0.0 4.039541 11.214560 1.237701
27 1 1 0.0 1.045160 14.208941 4.786992
28 1 1 0.0 1.497190 11.666590 3.012347
29 1 2 0.0 4.606215 14.028576 5.323935
30 1 2 0.0 0.478486 11.394925 1.774645
31 1 2 0.0 3.859176 14.775615 0.700758
32 1 2 0.0 1.316826 13.190236 3.549291
33 1 2 0.0 1.225525 10.647886 4.250048
34 1 2 0.0 2.063865 13.937275 6.024693
35 1 2 0.0 3.020836 11.486226 2.475402
36 1 2 0.0 3.767875 12.233265 0.000000
37 1 1 0.0 3.587511 18.841611 6.561636
38 1 1 0.0 4.039541 16.299260 1.237701
39 1 1 0.0 1.045160 19.293641 4.786992
40 1 1 0.0 1.497190 16.751290 3.012347
41 1 2 0.0 4.606215 19.113276 5.323935
42 1 2 0.0 0.478486 16.479625 1.774645
43 1 2 0.0 3.859176 19.860315 0.700758
44 1 2 0.0 1.316826 18.274936 3.549291
45 1 2 0.0 1.225525 15.732586 4.250048
46 1 2 0.0 2.063865 19.021975 6.024693
47 1 2 0.0 3.020836 16.570926 2.475402
48 1 2 0.0 3.767875 17.317965 0.000000
49 1 1 0.0 3.587511 23.926311 6.561636
50 1 1 0.0 4.039541 21.383960 1.237701
51 1 1 0.0 1.045160 24.378341 4.786992
52 1 1 0.0 1.497190 21.835990 3.012347
53 1 2 0.0 4.606215 24.197976 5.323935
54 1 2 0.0 0.478486 21.564325 1.774645
55 1 2 0.0 3.859176 24.945015 0.700758
56 1 2 0.0 1.316826 23.359636 3.549291
57 1 2 0.0 1.225525 20.817286 4.250048
58 1 2 0.0 2.063865 24.106675 6.024693
59 1 2 0.0 3.020836 21.655626 2.475402
60 1 2 0.0 3.767875 22.402665 0.000000
61 1 1 0.0 3.587511 29.011011 6.561636
62 1 1 0.0 4.039541 26.468660 1.237701
63 1 1 0.0 1.045160 29.463041 4.786992
64 1 1 0.0 1.497190 26.920690 3.012347
65 1 2 0.0 4.606215 29.282676 5.323935
66 1 2 0.0 0.478486 26.649025 1.774645
67 1 2 0.0 3.859176 30.029715 0.700758
68 1 2 0.0 1.316826 28.444336 3.549291
69 1 2 0.0 1.225525 25.901986 4.250048
70 1 2 0.0 2.063865 29.191375 6.024693
71 1 2 0.0 3.020836 26.740326 2.475402
72 1 2 0.0 3.767875 27.487365 0.000000
73 1 1 0.0 3.587511 34.095711 6.561636
74 1 1 0.0 4.039541 31.553360 1.237701
75 1 1 0.0 1.045160 34.547741 4.786992
76 1 1 0.0 1.497190 32.005390 3.012347
77 1 2 0.0 4.606215 34.367376 5.323935
78 1 2 0.0 0.478486 31.733725 1.774645
79 1 2 0.0 3.859176 35.114415 0.700758
80 1 2 0.0 1.316826 33.529036 3.549291
81 1 2 0.0 1.225525 30.986686 4.250048
82 1 2 0.0 2.063865 34.276075 6.024693
83 1 2 0.0 3.020836 31.825026 2.475402
84 1 2 0.0 3.767875 32.572065 0.000000
85 1 1 0.0 3.587511 39.180411 6.561636
86 1 1 0.0 4.039541 36.638060 1.237701
87 1 1 0.0 1.045160 39.632441 4.786992
88 1 1 0.0 1.497190 37.090090 3.012347
89 1 2 0.0 4.606215 39.452076 5.323935
90 1 2 0.0 0.478486 36.818425 1.774645
91 1 2 0.0 3.859176 40.199115 0.700758
92 1 2 0.0 1.316826 38.613736 3.549291
93 1 2 0.0 1.225525 36.071386 4.250048
94 1 2 0.0 2.063865 39.360775 6.024693
95 1 2 0.0 3.020836 36.909726 2.475402
96 1 2 0.0 3.767875 37.656765 0.000000
97 1 1 0.0 3.587511 44.265111 6.561636
98 1 1 0.0 4.039541 41.722760 1.237701
99 1 1 0.0 1.045160 44.717141 4.786992
100 1 1 0.0 1.497190 42.174790 3.012347
101 1 2 0.0 4.606215 44.536776 5.323935
102 1 2 0.0 0.478486 41.903125 1.774645
103 1 2 0.0 3.859176 45.283815 0.700758
104 1 2 0.0 1.316826 43.698436 3.549291
105 1 2 0.0 1.225525 41.156086 4.250048
106 1 2 0.0 2.063865 44.445475 6.024693
107 1 2 0.0 3.020836 41.994426 2.475402
108 1 2 0.0 3.767875 42.741465 0.000000
109 1 1 0.0 3.587511 49.349811 6.561636
110 1 1 0.0 4.039541 46.807460 1.237701
111 1 1 0.0 1.045160 49.801841 4.786992
112 1 1 0.0 1.497190 47.259490 3.012347
113 1 2 0.0 4.606215 49.621476 5.323935
114 1 2 0.0 0.478486 46.987825 1.774645
115 1 2 0.0 3.859176 50.368515 0.700758
116 1 2 0.0 1.316826 48.783136 3.549291
117 1 2 0.0 1.225525 46.240786 4.250048
118 1 2 0.0 2.063865 49.530175 6.024693
119 1 2 0.0 3.020836 47.079126 2.475402
120 1 2 0.0 3.767875 47.826165 0.000000
121 1 1 0.0 8.672211 3.587511 6.561636
122 1 1 0.0 9.124241 1.045160 1.237701
123 1 1 0.0 6.129860 4.039541 4.786992
124 1 1 0.0 6.581890 1.497190 3.012347
125 1 2 0.0 9.690915 3.859176 5.323935
126 1 2 0.0 5.563186 1.225525 1.774645
127 1 2 0.0 8.943876 4.606215 0.700758
128 1 2 0.0 6.401526 3.020836 3.549291
129 1 2 0.0 6.310225 0.478486 4.250048
130 1 2 0.0 7.148565 3.767875 6.024693
131 1 2 0.0 8.105536 1.316826 2.475402
132 1 2 0.0 8.852575 2.063865 0.000000
133 1 1 0.0 8.672211 8.672211 6.561636
134 1 1 0.0 9.124241 6.129860 1.237701
135 1 1 0.0 6.129860 9.124241 4.786992
136 1 1 0.0 6.581890 6.581890 3.012347
137 1 2 0.0 9.690915 8.943876 5.323935
138 1 2 0.0 5.563186 6.310225 1.774645
139 1 2 0.0 8.943876 9.690915 0.700758
140 1 2 0.0 6.401526 8.105536 3.549291
141 1 2 0.0 6.310225 5.563186 4.250048
142 1 2 0.0 7.148565 8.852575 6.024693
143 1 2 0.0 8.105536 6.401526 2.475402
144 1 2 0.0 8.852575 7.148565 0.000000
145 1 1 0.0 8.672211 13.756911 6.561636
146 1 1 0.0 9.124241 11.214560 1.237701
147 1 1 0.0 6.129860 14.208941 4.786992
148 1 1 0.0 6.581890 11.666590 3.012347
149 1 2 0.0 9.690915 14.028576 5.323935
150 1 2 0.0 5.563186 11.394925 1.774645
151 1 2 0.0 8.943876 14.775615 0.700758
152 1 2 0.0 6.401526 13.190236 3.549291
153 1 2 0.0 6.310225 10.647886 4.250048
154 1 2 0.0 7.148565 13.937275 6.024693
155 1 2 0.0 8.105536 11.486226 2.475402
156 1 2 0.0 8.852575 12.233265 0.000000
157 1 1 0.0 8.672211 18.841611 6.561636
158 1 1 0.0 9.124241 16.299260 1.237701
159 1 1 0.0 6.129860 19.293641 4.786992
160 1 1 0.0 6.581890 16.751290 3.012347
161 1 2 0.0 9.690915 19.113276 5.323935
162 1 2 0.0 5.563186 16.479625 1.774645
163 1 2 0.0 8.943876 19.860315 0.700758
164 1 2 0.0 6.401526 18.274936 3.549291
165 1 2 0.0 6.310225 15.732586 4.250048
166 1 2 0.0 7.148565 19.021975 6.024693
167 1 2 0.0 8.105536 16.570926 2.475402
168 1 2 0.0 8.852575 17.317965 0.000000
169 1 1 0.0 8.672211 23.926311 6.561636
170 1 1 0.0 9.124241 21.383960 1.237701
171 1 1 0.0 6.129860 24.378341 4.786992
172 1 1 0.0 6.581890 21.835990 3.012347
173 1 2 0.0 9.690915 24.197976 5.323935
174 1 2 0.0 5.563186 21.564325 1.774645
175 1 2 0.0 8.943876 24.945015 0.700758
176 1 2 0.0 6.401526 23.359636 3.549291
177 1 2 0.0 6.310225 20.817286 4.250048
178 1 2 0.0 7.148565 24.106675 6.024693
179 1 2 0.0 8.105536 21.655626 2.475402
180 1 2 0.0 8.852575 22.402665 0.000000
181 1 1 0.0 8.672211 29.011011 6.561636
182 1 1 0.0 9.124241 26.468660 1.237701
183 1 1 0.0 6.129860 29.463041 4.786992
184 1 1 0.0 6.581890 26.920690 3.012347
185 1 2 0.0 9.690915 29.282676 5.323935
186 1 2 0.0 5.563186 26.649025 1.774645
187 1 2 0.0 8.943876 30.029715 0.700758
188 1 2 0.0 6.401526 28.444336 3.549291
189 1 2 0.0 6.310225 25.901986 4.250048
190 1 2 0.0 7.148565 29.191375 6.024693
191 1 2 0.0 8.105536 26.740326 2.475402
192 1 2 0.0 8.852575 27.487365 0.000000
193 1 1 0.0 8.672211 34.095711 6.561636
194 1 1 0.0 9.124241 31.553360 1.237701
195 1 1 0.0 6.129860 34.547741 4.786992
196 1 1 0.0 6.581890 32.005390 3.012347
197 1 2 0.0 9.690915 34.367376 5.323935
198 1 2 0.0 5.563186 31.733725 1.774645
199 1 2 0.0 8.943876 35.114415 0.700758
200 1 2 0.0 6.401526 33.529036 3.549291
201 1 2 0.0 6.310225 30.986686 4.250048
202 1 2 0.0 7.148565 34.276075 6.024693
203 1 2 0.0 8.105536 31.825026 2.475402
204 1 2 0.0 8.852575 32.572065 0.000000
205 1 1 0.0 8.672211 39.180411 6.561636
206 1 1 0.0 9.124241 36.638060 1.237701
207 1 1 0.0 6.129860 39.632441 4.786992
208 1 1 0.0 6.581890 37.090090 3.012347
209 1 2 0.0 9.690915 39.452076 5.323935
210 1 2 0.0 5.563186 36.818425 1.774645
211 1 2 0.0 8.943876 40.199115 0.700758
212 1 2 0.0 6.401526 38.613736 3.549291
213 1 2 0.0 6.310225 36.071386 4.250048
214 1 2 0.0 7.148565 39.360775 6.024693
215 1 2 0.0 8.105536 36.909726 2.475402
216 1 2 0.0 8.852575 37.656765 0.000000
217 1 1 0.0 8.672211 44.265111 6.561636
218 1 1 0.0 9.124241 41.722760 1.237701
219 1 1 0.0 6.129860 44.717141 4.786992
220 1 1 0.0 6.581890 42.174790 3.012347
221 1 2 0.0 9.690915 44.536776 5.323935
222 1 2 0.0 5.563186 41.903125 1.774645
223 1 2 0.0 8.943876 45.283815 0.700758
224 1 2 0.0 6.401526 43.698436 3.549291
225 1 2 0.0 6.310225 41.156086 4.250048
226 1 2 0.0 7.148565 44.445475 6.024693
227 1 2 0.0 8.105536 41.994426 2.475402
228 1 2 0.0 8.852575 42.741465 0.000000
229 1 1 0.0 8.672211 49.349811 6.561636
230 1 1 0.0 9.124241 46.807460 1.237701
231 1 1 0.0 6.129860 49.801841 4.786992
232 1 1 0.0 6.581890 47.259490 3.012347
233 1 2 0.0 9.690915 49.621476 5.323935
234 1 2 0.0 5.563186 46.987825 1.774645
235 1 2 0.0 8.943876 50.368515 0.700758
236 1 2 0.0 6.401526 48.783136 3.549291
237 1 2 0.0 6.310225 46.240786 4.250048
238 1 2 0.0 7.148565 49.530175 6.024693
239 1 2 0.0 8.105536 47.079126 2.475402
240 1 2 0.0 8.852575 47.826165 0.000000
241 1 1 0.0 13.756911 3.587511 6.561636
242 1 1 0.0 14.208941 1.045160 1.237701
243 1 1 0.0 11.214560 4.039541 4.786992
244 1 1 0.0 11.666590 1.497190 3.012347
245 1 2 0.0 14.775615 3.859176 5.323935
246 1 2 0.0 10.647886 1.225525 1.774645
247 1 2 0.0 14.028576 4.606215 0.700758
248 1 2 0.0 11.486226 3.020836 3.549291
249 1 2 0.0 11.394925 0.478486 4.250048
250 1 2 0.0 12.233265 3.767875 6.024693
251 1 2 0.0 13.190236 1.316826 2.475402
252 1 2 0.0 13.937275 2.063865 0.000000
253 1 1 0.0 13.756911 8.672211 6.561636
254 1 1 0.0 14.208941 6.129860 1.237701
255 1 1 0.0 11.214560 9.124241 4.786992
256 1 1 0.0 11.666590 6.581890 3.012347
257 1 2 0.0 14.775615 8.943876 5.323935
258 1 2 0.0 10.647886 6.310225 1.774645
259 1 2 0.0 14.028576 9.690915 0.700758
260 1 2 0.0 11.486226 8.105536 3.549291
261 1 2 0.0 11.394925 5.563186 4.250048
262 1 2 0.0 12.233265 8.852575 6.024693
263 1 2 0.0 13.190236 6.401526 2.475402
264 1 2 0.0 13.937275 7.148565 0.000000
265 1 1 0.0 13.756911 13.756911 6.561636
266 1 1 0.0 14.208941 11.214560 1.237701
267 1 1 0.0 11.214560 14.208941 4.786992
268 1 1 0.0 11.666590 11.666590 3.012347
269 1 2 0.0 14.775615 14.028576 5.323935
270 1 2 0.0 10.647886 11.394925 1.774645
271 1 2 0.0 14.028576 14.775615 0.700758
272 1 2 0.0 11.486226 13.190236 3.549291
273 1 2 0.0 11.394925 10.647886 4.250048
274 1 2 0.0 12.233265 13.937275 6.024693
275 1 2 0.0 13.190236 11.486226 2.475402
276 1 2 0.0 13.937275 12.233265 0.000000
277 1 1 0.0 13.756911 18.841611 6.561636
278 1 1 0.0 14.208941 16.299260 1.237701
279 1 1 0.0 11.214560 19.293641 4.786992
280 1 1 0.0 11.666590 16.751290 3.012347
281 1 2 0.0 14.775615 19.113276 5.323935
282 1 2 0.0 10.647886 16.479625 1.774645
283 1 2 0.0 14.028576 19.860315 0.700758
284 1 2 0.0 11.486226 18.274936 3.549291
285 1 2 0.0 11.394925 15.732586 4.250048
286 1 2 0.0 12.233265 19.021975 6.024693
287 1 2 0.0 13.190236 16.570926 2.475402
288 1 2 0.0 13.937275 17.317965 0.000000
289 1 1 0.0 13.756911 23.926311 6.561636
290 1 1 0.0 14.208941 21.383960 1.237701
291 1 1 0.0 11.214560 24.378341 4.786992
292 1 1 0.0 11.666590 21.835990 3.012347
293 1 2 0.0 14.775615 24.197976 5.323935
294 1 2 0.0 10.647886 21.564325 1.774645
295 1 2 0.0 14.028576 24.945015 0.700758
296 1 2 0.0 11.486226 23.359636 3.549291
297 1 2 0.0 11.394925 20.817286 4.250048
298 1 2 0.0 12.233265 24.106675 6.024693
299 1 2 0.0 13.190236 21.655626 2.475402
300 1 2 0.0 13.937275 22.402665 0.000000
301 1 1 0.0 13.756911 29.011011 6.561636
302 1 1 0.0 14.208941 26.468660 1.237701
303 1 1 0.0 11.214560 29.463041 4.786992
304 1 1 0.0 11.666590 26.920690 3.012347
305 1 2 0.0 14.775615 29.282676 5.323935
306 1 2 0.0 10.647886 26.649025 1.774645
307 1 2 0.0 14.028576 30.029715 0.700758
308 1 2 0.0 11.486226 28.444336 3.549291
309 1 2 0.0 11.394925 25.901986 4.250048
310 1 2 0.0 12.233265 29.191375 6.024693
311 1 2 0.0 13.190236 26.740326 2.475402
312 1 2 0.0 13.937275 27.487365 0.000000
313 1 1 0.0 13.756911 34.095711 6.561636
314 1 1 0.0 14.208941 31.553360 1.237701
315 1 1 0.0 11.214560 34.547741 4.786992
316 1 1 0.0 11.666590 32.005390 3.012347
317 1 2 0.0 14.775615 34.367376 5.323935
318 1 2 0.0 10.647886 31.733725 1.774645
319 1 2 0.0 14.028576 35.114415 0.700758
320 1 2 0.0 11.486226 33.529036 3.549291
321 1 2 0.0 11.394925 30.986686 4.250048
322 1 2 0.0 12.233265 34.276075 6.024693
323 1 2 0.0 13.190236 31.825026 2.475402
324 1 2 0.0 13.937275 32.572065 0.000000
325 1 1 0.0 13.756911 39.180411 6.561636
326 1 1 0.0 14.208941 36.638060 1.237701
327 1 1 0.0 11.214560 39.632441 4.786992
328 1 1 0.0 11.666590 37.090090 3.012347
329 1 2 0.0 14.775615 39.452076 5.323935
330 1 2 0.0 10.647886 36.818425 1.774645
331 1 2 0.0 14.028576 40.199115 0.700758
332 1 2 0.0 11.486226 38.613736 3.549291
333 1 2 0.0 11.394925 36.071386 4.250048
334 1 2 0.0 12.233265 39.360775 6.024693
335 1 2 0.0 13.190236 36.909726 2.475402
336 1 2 0.0 13.937275 37.656765 0.000000
337 1 1 0.0 13.756911 44.265111 6.561636
338 1 1 0.0 14.208941 41.722760 1.237701
339 1 1 0.0 11.214560 44.717141 4.786992
340 1 1 0.0 11.666590 42.174790 3.012347
341 1 2 0.0 14.775615 44.536776 5.323935
342 1 2 0.0 10.647886 41.903125 1.774645
343 1 2 0.0 14.028576 45.283815 0.700758
344 1 2 0.0 11.486226 43.698436 3.549291
345 1 2 0.0 11.394925 41.156086 4.250048
346 1 2 0.0 12.233265 44.445475 6.024693
347 1 2 0.0 13.190236 41.994426 2.475402
348 1 2 0.0 13.937275 42.741465 0.000000
349 1 1 0.0 13.756911 49.349811 6.561636
350 1 1 0.0 14.208941 46.807460 1.237701
351 1 1 0.0 11.214560 49.801841 4.786992
352 1 1 0.0 11.666590 47.259490 3.012347
353 1 2 0.0 14.775615 49.621476 5.323935
354 1 2 0.0 10.647886 46.987825 1.774645
355 1 2 0.0 14.028576 50.368515 0.700758
356 1 2 0.0 11.486226 48.783136 3.549291
357 1 2 0.0 11.394925 46.240786 4.250048
358 1 2 0.0 12.233265 49.530175 6.024693
359 1 2 0.0 13.190236 47.079126 2.475402
360 1 2 0.0 13.937275 47.826165 0.000000
361 1 1 0.0 18.841611 3.587511 6.561636
362 1 1 0.0 19.293641 1.045160 1.237701
363 1 1 0.0 16.299260 4.039541 4.786992
364 1 1 0.0 16.751290 1.497190 3.012347
365 1 2 0.0 19.860315 3.859176 5.323935
366 1 2 0.0 15.732586 1.225525 1.774645
367 1 2 0.0 19.113276 4.606215 0.700758
368 1 2 0.0 16.570926 3.020836 3.549291
369 1 2 0.0 16.479625 0.478486 4.250048
370 1 2 0.0 17.317965 3.767875 6.024693
371 1 2 0.0 18.274936 1.316826 2.475402
372 1 2 0.0 19.021975 2.063865 0.000000
373 1 1 0.0 18.841611 8.672211 6.561636
374 1 1 0.0 19.293641 6.129860 1.237701
375 1 1 0.0 16.299260 9.124241 4.786992
376 1 1 0.0 16.751290 6.581890 3.012347
377 1 2 0.0 19.860315 8.943876 5.323935
378 1 2 0.0 15.732586 6.310225 1.774645
379 1 2 0.0 19.113276 9.690915 0.700758
380 1 2 0.0 16.570926 8.105536 3.549291
381 1 2 0.0 16.479625 5.563186 4.250048
382 1 2 0.0 17.317965 8.852575 6.024693
383 1 2 0.0 18.274936 6.401526 2.475402
384 1 2 0.0 19.021975 7.148565 0.000000
385 1 1 0.0 18.841611 13.756911 6.561636
386 1 1 0.0 19.293641 11.214560 1.237701
387 1 1 0.0 16.299260 14.208941 4.786992
388 1 1 0.0 16.751290 11.666590 3.012347
389 1 2 0.0 19.860315 14.028576 5.323935
390 1 2 0.0 15.732586 11.394925 1.774645
391 1 2 0.0 19.113276 14.775615 0.700758
392 1 2 0.0 16.570926 13.190236 3.549291
393 1 2 0.0 16.479625 10.647886 4.250048
394 1 2 0.0 17.317965 13.937275 6.024693
395 1 2 0.0 18.274936 11.486226 2.475402
396 1 2 0.0 19.021975 12.233265 0.000000
397 1 1 0.0 18.841611 18.841611 6.561636
398 1 1 0.0 19.293641 16.299260 1.237701
399 1 1 0.0 16.299260 19.293641 4.786992
400 1 1 0.0 16.751290 16.751290 3.012347
401 1 2 0.0 19.860315 19.113276 5.323935
402 1 2 0.0 15.732586 16.479625 1.774645
403 1 2 0.0 19.113276 19.860315 0.700758
404 1 2 0.0 16.570926 18.274936 3.549291
405 1 2 0.0 16.479625 15.732586 4.250048
406 1 2 0.0 17.317965 19.021975 6.024693
407 1 2 0.0 18.274936 16.570926 2.475402
408 1 2 0.0 19.021975 17.317965 0.000000
409 1 1 0.0 18.841611 23.926311 6.561636
410 1 1 0.0 19.293641 21.383960 1.237701
411 1 1 0.0 16.299260 24.378341 4.786992
412 1 1 0.0 16.751290 21.835990 3.012347
413 1 2 0.0 19.860315 24.197976 5.323935
414 1 2 0.0 15.732586 21.564325 1.774645
415 1 2 0.0 19.113276 24.945015 0.700758
416 1 2 0.0 16.570926 23.359636 3.549291
417 1 2 0.0 16.479625 20.817286 4.250048
418 1 2 0.0 17.317965 24.106675 6.024693
419 1 2 0.0 18.274936 21.655626 2.475402
420 1 2 0.0 19.021975 22.402665 0.000000
421 1 1 0.0 18.841611 29.011011 6.561636
422 1 1 0.0 19.293641 26.468660 1.237701
423 1 1 0.0 16.299260 29.463041 4.786992
424 1 1 0.0 16.751290 26.920690 3.012347
425 1 2 0.0 19.860315 29.282676 5.323935
426 1 2 0.0 15.732586 26.649025 1.774645
427 1 2 0.0 19.113276 30.029715 0.700758
428 1 2 0.0 16.570926 28.444336 3.549291
429 1 2 0.0 16.479625 25.901986 4.250048
430 1 2 0.0 17.317965 29.191375 6.024693
431 1 2 0.0 18.274936 26.740326 2.475402
432 1 2 0.0 19.021975 27.487365 0.000000
433 1 1 0.0 18.841611 34.095711 6.561636
434 1 1 0.0 19.293641 31.553360 1.237701
435 1 1 0.0 16.299260 34.547741 4.786992
436 1 1 0.0 16.751290 32.005390 3.012347
437 1 2 0.0 19.860315 34.367376 5.323935
438 1 2 0.0 15.732586 31.733725 1.774645
439 1 2 0.0 19.113276 35.114415 0.700758
440 1 2 0.0 16.570926 33.529036 3.549291
441 1 2 0.0 16.479625 30.986686 4.250048
442 1 2 0.0 17.317965 34.276075 6.024693
443 1 2 0.0 18.274936 31.825026 2.475402
444 1 2 0.0 19.021975 32.572065 0.000000
445 1 1 0.0 18.841611 39.180411 6.561636
446 1 1 0.0 19.293641 36.638060 1.237701
447 1 1 0.0 16.299260 39.632441 4.786992
448 1 1 0.0 16.751290 37.090090 3.012347
449 1 2 0.0 19.860315 39.452076 5.323935
450 1 2 0.0 15.732586 36.818425 1.774645
451 1 2 0.0 19.113276 40.199115 0.700758
452 1 2 0.0 16.570926 38.613736 3.549291
453 1 2 0.0 16.479625 36.071386 4.250048
454 1 2 0.0 17.317965 39.360775 6.024693
455 1 2 0.0 18.274936 36.909726 2.475402
456 1 2 0.0 19.021975 37.656765 0.000000
457 1 1 0.0 18.841611 44.265111 6.561636
458 1 1 0.0 19.293641 41.722760 1.237701
459 1 1 0.0 16.299260 44.717141 4.786992
460 1 1 0.0 16.751290 42.174790 3.012347
461 1 2 0.0 19.860315 44.536776 5.323935
462 1 2 0.0 15.732586 41.903125 1.774645
463 1 2 0.0 19.113276 45.283815 0.700758
464 1 2 0.0 16.570926 43.698436 3.549291
465 1 2 0.0 16.479625 41.156086 4.250048
466 1 2 0.0 17.317965 44.445475 6.024693
467 1 2 0.0 18.274936 41.994426 2.475402
468 1 2 0.0 19.021975 42.741465 0.000000
469 1 1 0.0 18.841611 49.349811 6.561636
470 1 1 0.0 19.293641 46.807460 1.237701
471 1 1 0.0 16.299260 49.801841 4.786992
472 1 1 0.0 16.751290 47.259490 3.012347
473 1 2 0.0 19.860315 49.621476 5.323935
474 1 2 0.0 15.732586 46.987825 1.774645
475 1 2 0.0 19.113276 50.368515 0.700758
476 1 2 0.0 16.570926 48.783136 3.549291
477 1 2 0.0 16.479625 46.240786 4.250048
478 1 2 0.0 17.317965 49.530175 6.024693
479 1 2 0.0 18.274936 47.079126 2.475402
480 1 2 0.0 19.021975 47.826165 0.000000
481 1 1 0.0 23.926311 3.587511 6.561636
482 1 1 0.0 24.378341 1.045160 1.237701
483 1 1 0.0 21.383960 4.039541 4.786992
484 1 1 0.0 21.835990 1.497190 3.012347
485 1 2 0.0 24.945015 3.859176 5.323935
486 1 2 0.0 20.817286 1.225525 1.774645
487 1 2 0.0 24.197976 4.606215 0.700758
488 1 2 0.0 21.655626 3.020836 3.549291
489 1 2 0.0 21.564325 0.478486 4.250048
490 1 2 0.0 22.402665 3.767875 6.024693
491 1 2 0.0 23.359636 1.316826 2.475402
492 1 2 0.0 24.106675 2.063865 0.000000
493 1 1 0.0 23.926311 8.672211 6.561636
494 1 1 0.0 24.378341 6.129860 1.237701
495 1 1 0.0 21.383960 9.124241 4.786992
496 1 1 0.0 21.835990 6.581890 3.012347
497 1 2 0.0 24.945015 8.943876 5.323935
498 1 2 0.0 20.817286 6.310225 1.774645
499 1 2 0.0 24.197976 9.690915 0.700758
500 1 2 0.0 21.655626 8.105536 3.549291
501 1 2 0.0 21.564325 5.563186 4.250048
502 1 2 0.0 22.402665 8.852575 6.024693
503 1 2 0.0 23.359636 6.401526 2.475402
504 1 2 0.0 24.106675 7.148565 0.000000
505 1 1 0.0 23.926311 13.756911 6.561636
506 1 1 0.0 24.378341 11.214560 1.237701
507 1 1 0.0 21.383960 14.208941 4.786992
508 1 1 0.0 21.835990 11.666590 3.012347
509 1 2 0.0 24.945015 14.028576 5.323935
510 1 2 0.0 20.817286 11.394925 1.774645
511 1 2 0.0 24.197976 14.775615 0.700758
512 1 2 0.0 21.655626 13.190236 3.549291
513 1 2 0.0 21.564325 10.647886 4.250048
514 1 2 0.0 22.402665 13.937275 6.024693
515 1 2 0.0 23.359636 11.486226 2.475402
516 1 2 0.0 24.106675 12.233265 0.000000
517 1 1 0.0 23.926311 18.841611 6.561636
518 1 1 0.0 24.378341 16.299260 1.237701
519 1 1 0.0 21.383960 19.293641 4.786992
520 1 1 0.0 21.835990 16.751290 3.012347
521 1 2 0.0 24.945015 19.113276 5.323935
522 1 2 0.0 20.817286 16.479625 1.774645
523 1 2 0.0 24.197976 19.860315 0.700758
524 1 2 0.0 21.655626 18.274936 3.549291
525 1 2 0.0 21.564325 15.732586 4.250048
526 1 2 0.0 22.402665 19.021975 6.024693
527 1 2 0.0 23.359636 16.570926 2.475402
528 1 2 0.0 24.106675 17.317965 0.000000
529 1 1 0.0 23.926311 23.926311 6.561636
530 1 1 0.0 24.378341 21.383960 1.237701
531 1 1 0.0 21.383960 24.378341 4.786992
532 1 1 0.0 21.835990 21.835990 3.012347
533 1 2 0.0 24.945015 24.197976 5.323935
534 1 2 0.0 20.817286 21.564325 1.774645
535 1 2 0.0 24.197976 24.945015 0.700758
536 1 2 0.0 21.655626 23.359636 3.549291
537 1 2 0.0 21.564325 20.817286 4.250048
538 1 2 0.0 22.402665 24.106675 6.024693
539 1 2 0.0 23.359636 21.655626 2.475402
540 1 2 0.0 24.106675 22.402665 0.000000
541 1 1 0.0 23.926311 29.011011 6.561636
542 1 1 0.0 24.378341 26.468660 1.237701
543 1 1 0.0 21.383960 29.463041 4.786992
544 1 1 0.0 21.835990 26.920690 3.012347
545 1 2 0.0 24.945015 29.282676 5.323935
546 1 2 0.0 20.817286 26.649025 1.774645
547 1 2 0.0 24.197976 30.029715 0.700758
548 1 2 0.0 21.655626 28.444336 3.549291
549 1 2 0.0 21.564325 25.901986 4.250048
550 1 2 0.0 22.402665 29.191375 6.024693
551 1 2 0.0 23.359636 26.740326 2.475402
552 1 2 0.0 24.106675 27.487365 0.000000
553 1 1 0.0 23.926311 34.095711 6.561636
554 1 1 0.0 24.378341 31.553360 1.237701
555 1 1 0.0 21.383960 34.547741 4.786992
556 1 1 0.0 21.835990 32.005390 3.012347
557 1 2 0.0 24.945015 34.367376 5.323935
558 1 2 0.0 20.817286 31.733725 1.774645
559 1 2 0.0 24.197976 35.114415 0.700758
560 1 2 0.0 21.655626 33.529036 3.549291
561 1 2 0.0 21.564325 30.986686 4.250048
562 1 2 0.0 22.402665 34.276075 6.024693
563 1 2 0.0 23.359636 31.825026 2.475402
564 1 2 0.0 24.106675 32.572065 0.000000
565 1 1 0.0 23.926311 39.180411 6.561636
566 1 1 0.0 24.378341 36.638060 1.237701
567 1 1 0.0 21.383960 39.632441 4.786992
568 1 1 0.0 21.835990 37.090090 3.012347
569 1 2 0.0 24.945015 39.452076 5.323935
570 1 2 0.0 20.817286 36.818425 1.774645
571 1 2 0.0 24.197976 40.199115 0.700758
572 1 2 0.0 21.655626 38.613736 3.549291
573 1 2 0.0 21.564325 36.071386 4.250048
574 1 2 0.0 22.402665 39.360775 6.024693
575 1 2 0.0 23.359636 36.909726 2.475402
576 1 2 0.0 24.106675 37.656765 0.000000
577 1 1 0.0 23.926311 44.265111 6.561636
578 1 1 0.0 24.378341 41.722760 1.237701
579 1 1 0.0 21.383960 44.717141 4.786992
580 1 1 0.0 21.835990 42.174790 3.012347
581 1 2 0.0 24.945015 44.536776 5.323935
582 1 2 0.0 20.817286 41.903125 1.774645
583 1 2 0.0 24.197976 45.283815 0.700758
584 1 2 0.0 21.655626 43.698436 3.549291
585 1 2 0.0 21.564325 41.156086 4.250048
586 1 2 0.0 22.402665 44.445475 6.024693
587 1 2 0.0 23.359636 41.994426 2.475402
588 1 2 0.0 24.106675 42.741465 0.000000
589 1 1 0.0 23.926311 49.349811 6.561636
590 1 1 0.0 24.378341 46.807460 1.237701
591 1 1 0.0 21.383960 49.801841 4.786992
592 1 1 0.0 21.835990 47.259490 3.012347
593 1 2 0.0 24.945015 49.621476 5.323935
594 1 2 0.0 20.817286 46.987825 1.774645
595 1 2 0.0 24.197976 50.368515 0.700758
596 1 2 0.0 21.655626 48.783136 3.549291
597 1 2 0.0 21.564325 46.240786 4.250048
598 1 2 0.0 22.402665 49.530175 6.024693
599 1 2 0.0 23.359636 47.079126 2.475402
600 1 2 0.0 24.106675 47.826165 0.000000
601 1 1 0.0 29.011011 3.587511 6.561636
602 1 1 0.0 29.463041 1.045160 1.237701
603 1 1 0.0 26.468660 4.039541 4.786992
604 1 1 0.0 26.920690 1.497190 3.012347
605 1 2 0.0 30.029715 3.859176 5.323935
606 1 2 0.0 25.901986 1.225525 1.774645
607 1 2 0.0 29.282676 4.606215 0.700758
608 1 2 0.0 26.740326 3.020836 3.549291
609 1 2 0.0 26.649025 0.478486 4.250048
610 1 2 0.0 27.487365 3.767875 6.024693
611 1 2 0.0 28.444336 1.316826 2.475402
612 1 2 0.0 29.191375 2.063865 0.000000
613 1 1 0.0 29.011011 8.672211 6.561636
614 1 1 0.0 29.463041 6.129860 1.237701
615 1 1 0.0 26.468660 9.124241 4.786992
616 1 1 0.0 26.920690 6.581890 3.012347
617 1 2 0.0 30.029715 8.943876 5.323935
618 1 2 0.0 25.901986 6.310225 1.774645
619 1 2 0.0 29.282676 9.690915 0.700758
620 1 2 0.0 26.740326 8.105536 3.549291
621 1 2 0.0 26.649025 5.563186 4.250048
622 1 2 0.0 27.487365 8.852575 6.024693
623 1 2 0.0 28.444336 6.401526 2.475402
624 1 2 0.0 29.191375 7.148565 0.000000
625 1 1 0.0 29.011011 13.756911 6.561636
626 1 1 0.0 29.463041 11.214560 1.237701
627 1 1 0.0 26.468660 14.208941 4.786992
628 1 1 0.0 26.920690 11.666590 3.012347
629 1 2 0.0 30.029715 14.028576 5.323935
630 1 2 0.0 25.901986 11.394925 1.774645
631 1 2 0.0 29.282676 14.775615 0.700758
632 1 2 0.0 26.740326 13.190236 3.549291
633 1 2 0.0 26.649025 10.647886 4.250048
634 1 2 0.0 27.487365 13.937275 6.024693
635 1 2 0.0 28.444336 11.486226 2.475402
636 1 2 0.0 29.191375 12.233265 0.000000
637 1 1 0.0 29.011011 18.841611 6.561636
638 1 1 0.0 29.463041 16.299260 1.237701
639 1 1 0.0 26.468660 19.293641 4.786992
640 1 1 0.0 26.920690 16.751290 3.012347
641 1 2 0.0 30.029715 19.113276 5.323935
642 1 2 0.0 25.901986 16.479625 1.774645
643 1 2 0.0 29.282676 19.860315 0.700758
644 1 2 0.0 26.740326 18.274936 3.549291
645 1 2 0.0 26.649025 15.732586 4.250048
646 1 2 0.0 27.487365 19.021975 6.024693
647 1 2 0.0 28.444336 16.570926 2.475402
648 1 2 0.0 29.191375 17.317965 0.000000
649 1 1 0.0 29.011011 23.926311 6.561636
650 1 1 0.0 29.463041 21.383960 1.237701
651 1 1 0.0 26.468660 24.378341 4.786992
652 1 1 0.0 26.920690 21.835990 3.012347
653 1 2 0.0 30.029715 24.197976 5.323935
654 1 2 0.0 25.901986 21.564325 1.774645
655 1 2 0.0 29.282676 24.945015 0.700758
656 1 2 0.0 26.740326 23.359636 3.549291
657 1 2 0.0 26.649025 20.817286 4.250048
658 1 2 0.0 27.487365 24.106675 6.024693
659 1 2 0.0 28.444336 21.655626 2.475402
660 1 2 0.0 29.191375 22.402665 0.000000
661 1 1 0.0 29.011011 29.011011 6.561636
662 1 1 0.0 29.463041 26.468660 1.237701
663 1 1 0.0 26.468660 29.463041 4.786992
664 1 1 0.0 26.920690 26.920690 3.012347
665 1 2 0.0 30.029715 29.282676 5.323935
666 1 2 0.0 25.901986 26.649025 1.774645
667 1 2 0.0 29.282676 30.029715 0.700758
668 1 2 0.0 26.740326 28.444336 3.549291
669 1 2 0.0 26.649025 25.901986 4.250048
670 1 2 0.0 27.487365 29.191375 6.024693
671 1 2 0.0 28.444336 26.740326 2.475402
672 1 2 0.0 29.191375 27.487365 0.000000
673 1 1 0.0 29.011011 34.095711 6.561636
674 1 1 0.0 29.463041 31.553360 1.237701
675 1 1 0.0 26.468660 34.547741 4.786992
676 1 1 0.0 26.920690 32.005390 3.012347
677 1 2 0.0 30.029715 34.367376 5.323935
678 1 2 0.0 25.901986 31.733725 1.774645
679 1 2 0.0 29.282676 35.114415 0.700758
680 1 2 0.0 26.740326 33.529036 3.549291
681 1 2 0.0 26.649025 30.986686 4.250048
682 1 2 0.0 27.487365 34.276075 6.024693
683 1 2 0.0 28.444336 31.825026 2.475402
684 1 2 0.0 29.191375 32.572065 0.000000
685 1 1 0.0 29.011011 39.180411 6.561636
686 1 1 0.0 29.463041 36.638060 1.237701
687 1 1 0.0 26.468660 39.632441 4.786992
688 1 1 0.0 26.920690 37.090090 3.012347
689 1 2 0.0 30.029715 39.452076 5.323935
690 1 2 0.0 25.901986 36.818425 1.774645
691 1 2 0.0 29.282676 40.199115 0.700758
692 1 2 0.0 26.740326 38.613736 3.549291
693 1 2 0.0 26.649025 36.071386 4.250048
694 1 2 0.0 27.487365 39.360775 6.024693
695 1 2 0.0 28.444336 36.909726 2.475402
696 1 2 0.0 29.191375 37.656765 0.000000
697 1 1 0.0 29.011011 44.265111 6.561636
698 1 1 0.0 29.463041 41.722760 1.237701
699 1 1 0.0 26.468660 44.717141 4.786992
700 1 1 0.0 26.920690 42.174790 3.012347
701 1 2 0.0 30.029715 44.536776 5.323935
702 1 2 0.0 25.901986 41.903125 1.774645
703 1 2 0.0 29.282676 45.283815 0.700758
704 1 2 0.0 26.740326 43.698436 3.549291
705 1 2 0.0 26.649025 41.156086 4.250048
706 1 2 0.0 27.487365 44.445475 6.024693
707 1 2 0.0 28.444336 41.994426 2.475402
708 1 2 0.0 29.191375 42.741465 0.000000
709 1 1 0.0 29.011011 49.349811 6.561636
710 1 1 0.0 29.463041 46.807460 1.237701
711 1 1 0.0 26.468660 49.801841 4.786992
712 1 1 0.0 26.920690 47.259490 3.012347
713 1 2 0.0 30.029715 49.621476 5.323935
714 1 2 0.0 25.901986 46.987825 1.774645
715 1 2 0.0 29.282676 50.368515 0.700758
716 1 2 0.0 26.740326 48.783136 3.549291
717 1 2 0.0 26.649025 46.240786 4.250048
718 1 2 0.0 27.487365 49.530175 6.024693
719 1 2 0.0 28.444336 47.079126 2.475402
720 1 2 0.0 29.191375 47.826165 0.000000
721 1 1 0.0 34.095711 3.587511 6.561636
722 1 1 0.0 34.547741 1.045160 1.237701
723 1 1 0.0 31.553360 4.039541 4.786992
724 1 1 0.0 32.005390 1.497190 3.012347
725 1 2 0.0 35.114415 3.859176 5.323935
726 1 2 0.0 30.986686 1.225525 1.774645
727 1 2 0.0 34.367376 4.606215 0.700758
728 1 2 0.0 31.825026 3.020836 3.549291
729 1 2 0.0 31.733725 0.478486 4.250048
730 1 2 0.0 32.572065 3.767875 6.024693
731 1 2 0.0 33.529036 1.316826 2.475402
732 1 2 0.0 34.276075 2.063865 0.000000
733 1 1 0.0 34.095711 8.672211 6.561636
734 1 1 0.0 34.547741 6.129860 1.237701
735 1 1 0.0 31.553360 9.124241 4.786992
736 1 1 0.0 32.005390 6.581890 3.012347
737 1 2 0.0 35.114415 8.943876 5.323935
738 1 2 0.0 30.986686 6.310225 1.774645
739 1 2 0.0 34.367376 9.690915 0.700758
740 1 2 0.0 31.825026 8.105536 3.549291