
33763 atoms

1 atom types

0.000000 4.171288 xlo xhi
0.000000 4.171288 ylo yhi
0.000000 4.171288 zlo zhi

Masses

1 196.967000

Atoms

1 1 1 0.0 0.000000 0.000000 0.000000
2 1 1 0.0 0.000000 0.000000 4.171288
3 1 1 0.0 0.000000 0.000000 8.342576
4 1 1 0.0 0.000000 0.000000 12.513864
5 1 1 0.0 0.000000 0.000000 16.685152
6 1 1 0.0 0.000000 0.000000 20.856440
7 1 1 0.0 0.000000 0.000000 25.027728
8 1 1 0.0 0.000000 0.000000 29.199016
9 1 1 0.0 0.000000 0.000000 33.370304
10 1 1 0.0 0.000000 0.000000 37.541592
11 1 1 0.0 0.000000 0.000000 41.712880
12 1 1 0.0 0.000000 0.000000 45.884168
13 1 1 0.0 0.000000 0.000000 50.055456
14 1 1 0.0 0.000000 0.000000 54.226744
15 1 1 0.0 0.000000 0.000000 58.398032
16 1 1 0.0 0.000000 0.000000 62.569320
17 1 1 0.0 0.000000 0.000000 66.740608
18 1 1 0.0 0.000000 0.000000 70.911896
19 1 1 0.0 0.000000 0.000000 75.083184
20 1 1 0.0 0.000000 0.000000 79.254472
21 1 1 0.0 0.000000 0.000000 83.425760
22 1 1 0.0 0.000000 0.000000 87.597048
23 1 1 0.0 0.000000 0.000000 91.768336
24 1 1 0.0 0.000000 0.000000 95.939624
25 1 1 0.0 0.000000 0.000000 100.110912
26 1 1 0.0 0.000000 0.000000 104.282200
27 1 1 0.0 0.000000 0.000000 108.453488
28 1 1 0.0 0.000000 0.000000 112.624776
29 1 1 0.0 0.000000 0.000000 116.796064
30 1 1 0.0 0.000000 0.000000 120.967352
31 1 1 0.0 0.000000 0.000000 125.138640
32 1 1 0.0 0.000000 0.000000 129.309928
33 1 1 0.0 0.000000 0.000000 133.481216
34 1 1 0.0 0.000000 0.000000 137.652504
35 1 1 0.0 0.000000 0.000000 141.823792
36 1 1 0.0 0.000000 0.000000 145.995080
37 1 1 0.0 0.000000 0.000000 150.166368
38 1 1 0.0 0.000000 2.085644 2.085644
39 1 1 0.0 0.000000 2.085644 6.256932
40 1 1 0.0 0.000000 2.085644 10.428220
41 1 1 0.0 0.000000 2.085644 14.599508
42 1 1 0.0 0.000000 2.085644 18.770796
43 1 1 0.0 0.000000 2.085644 22.942084
44 1 1 0.0 0.000000 2.085644 27.113372
45 1 1 0.0 0.000000 2.085644 31.284660
46 1 1 0.0 0.000000 2.085644 35.455948
47 1 1 0.0 0.000000 2.085644 39.627236
48 1 1 0.0 0.000000 2.085644 43.798524
49 1 1 0.0 0.000000 2.085644 47.969812
50 1 1 0.0 0.000000 2.085644 52.141100
51 1 1 0.0 0.000000 2.085644 56.312388
52 1 1 0.0 0.000000 2.085644 60.483676
53 1 1 0.0 0.000000 2.085644 64.654964
54 1 1 0.0 0.000000 2.085644 68.826252
55 1 1 0.0 0.000000 2.085644 72.997540
56 1 1 0.0 0.000000 2.085644 77.168828
57 1 1 0.0 0.000000 2.085644 81.340116
58 1 1 0.0 0.000000 2.085644 85.511404
59 1 1 0.0 0.000000 2.085644 89.682692
60 1 1 0.0 0.000000 2.085644 93.853980
61 1 1 0.0 0.000000 2.085644 98.025268
62 1 1 0.0 0.000000 2.085644 102.196556
63 1 1 0.0 0.000000 2.085644 106.367844
64 1 1 0.0 0.000000 2.085644 110.539132
65 1 1 0.0 0.000000 2.085644 114.710420
66 1 1 0.0 0.000000 2.085644 118.881708
67 1 1 0.0 0.000000 2.085644 123.052996
68 1 1 0.0 0.000000 2.085644 127.224284
69 1 1 0.0 0.000000 2.085644 131.395572
70 1 1 0.0 0.000000 2.085644 135.566860
71 1 1 0.0 0.000000 2.085644 139.738148
72 1 1 0.0 0.000000 2.085644 143.909436
73 1 1 0.0 0.000000 2.085644 148.080724
74 1 1 0.0 0.000000 4.171288 0.000000
75 1 1 0.0 0.000000 4.171288 4.171288
76 1 1 0.0 0.000000 4.171288 8.342576
77 1 1 0.0 0.000000 4.171288 12.513864
78 1 1 0.0 0.000000 4.171288 16.685152
79 1 1 0.0 0.000000 4.171288 20.856440
80 1 1 0.0 0.000000 4.171288 25.027728
81 1 1 0.0 0.000000 4.171288 29.199016
82 1 1 0.0 0.000000 4.171288 33.370304
83 1 1 0.0 0.000000 4.171288 37.541592
84 1 1 0.0 0.000000 4.171288 41.712880
85 1 1 0.0 0.000000 4.171288 45.884168
86 1 1 0.0 0.000000 4.171288 50.055456
87 1 1 0.0 0.000000 4.171288 54.226744
88 1 1 0.0 0.000000 4.171288 58.398032
89 1 1 0.0 0.000000 4.171288 62.569320
90 1 1 0.0 0.000000 4.171288 66.740608
91 1 1 0.0 0.000000 4.171288 70.911896
92 1 1 0.0 0.000000 4.171288 75.083184
93 1 1 0.0 0.000000 4.171288 79.254472
94 1 1 0.0 0.000000 4.171288 83.425760
95 1 1 0.0 0.000000 4.171288 87.597048
96 1 1 0.0 0.000000 4.171288 91.768336
97 1 1 0.0 0.000000 4.171288 95.939624
98 1 1 0.0 0.000000 4.171288 100.110912
99 1 1 0.0 0.000000 4.171288 104.282200
100 1 1 0.0 0.000000 4.171288 108.453488
101 1 1 0.0 0.000000 4.171288 112.624776
102 1 1 0.0 0.000000 4.171288 116.796064
103 1 1 0.0 0.000000 4.171288 120.967352
104 1 1 0.0 0.000000 4.171288 125.138640
105 1 1 0.0 0.000000 4.171288 129.309928
106 1 1 0.0 0.000000 4.171288 133.481216
107 1 1 0.0 0.000000 4.171288 137.652504
108 1 1 0.0 0.000000 4.171288 141.823792
109 1 1 0.0 0.000000 4.171288 145.995080
110 1 1 0.0 0.000000 4.171288 150.166368
111 1 1 0.0 0.000000 6.256932 2.085644
112 1 1 0.0 0.000000 6.256932 6.256932
113 1 1 0.0 0.000000 6.256932 10.428220
114 1 1 0.0 0.000000 6.256932 14.599508
115 1 1 0.0 0.000000 6.256932 18.770796
116 1 1 0.0 0.000000 6.256932 22.942084
117 1 1 0.0 0.000000 6.256932 27.113372
118 1 1 0.0 0.000000 6.256932 31.284660
119 1 1 0.0 0.000000 6.256932 35.455948
120 1 1 0.0 0.000000 6.256932 39.627236
121 1 1 0.0 0.000000 6.256932 43.798524
122 1 1 0.0 0.000000 6.256932 47.969812
123 1 1 0.0 0.000000 6.256932 52.141100
124 1 1 0.0 0.000000 6.256932 56.312388
125 1 1 0.0 0.000000 6.256932 60.483676
126 1 1 0.0 0.000000 6.256932 64.654964
127 1 1 0.0 0.000000 6.256932 68.826252
128 1 1 0.0 0.000000 6.256932 72.997540
129 1 1 0.0 0.000000 6.256932 77.168828
130 1 1 0.0 0.000000 6.256932 81.340116
131 1 1 0.0 0.000000 6.256932 85.511404
132 1 1 0.0 0.000000 6.256932 89.682692
133 1 1 0.0 0.000000 6.256932 93.853980
134 1 1 0.0 0.000000 6.256932 98.025268
135 1 1 0.0 0.000000 6.256932 102.196556
136 1 1 0.0 0.000000 6.256932 106.367844
137 1 1 0.0 0.000000 6.256932 110.539132
138 1 1 0.0 0.000000 6.256932 114.710420
139 1 1 0.0 0.000000 6.256932 118.881708
140 1 1 0.0 0.000000 6.256932 123.052996
141 1 1 0.0 0.000000 6.256932 127.224284
142 1 1 0.0 0.000000 6.256932 131.395572
143 1 1 0.0 0.000000 6.256932 135.566860
144 1 1 0.0 0.000000 6.256932 139.738148
145 1 1 0.0 0.000000 6.256932 143.909436
146 1 1 0.0 0.000000 6.256932 148.080724
147 1 1 0.0 0.000000 8.342576 0.000000
148 1 1 0.0 0.000000 8.342576 4.171288
149 1 1 0.0 0.000000 8.342576 8.342576
150 1 1 0.0 0.000000 8.342576 12.513864
151 1 1 0.0 0.000000 8.342576 16.685152
152 1 1 0.0 0.000000 8.342576 20.856440
153 1 1 0.0 0.000000 8.342576 25.027728
154 1 1 0.0 0.000000 8.342576 29.199016
155 1 1 0.0 0.000000 8.342576 33.370304
156 1 1 0.0 0.000000 8.342576 37.541592
157 1 1 0.0 0.000000 8.342576 41.712880
158 1 1 0.0 0.000000 8.342576 45.884168
159 1 1 0.0 0.000000 8.342576 50.055456
160 1 1 0.0 0.000000 8.342576 54.226744
161 1 1 0.0 0.000000 8.342576 58.398032
162 1 1 0.0 0.000000 8.342576 62.569320
163 1 1 0.0 0.000000 8.342576 66.740608
164 1 1 0.0 0.000000 8.342576 70.911896
165 1 1 0.0 0.000000 8.342576 75.083184
166 1 1 0.0 0.000000 8.342576 79.254472
167 1 1 0.0 0.000000 8.342576 83.425760
168 1 1 0.0 0.000000 8.342576 87.597048
169 1 1 0.0 0.000000 8.342576 91.768336
170 1 1 0.0 0.000000 8.342576 95.939624
171 1 1 0.0 0.000000 8.342576 100.110912
172 1 1 0.0 0.000000 8.342576 104.282200
173 1 1 0.0 0.000000 8.342576 108.453488
174 1 1 0.0 0.000000 8.342576 112.624776
175 1 1 0.0 0.000000 8.342576 116.796064
176 1 1 0.0 0.000000 8.342576 120.967352
177 1 1 0.0 0.000000 8.342576 125.138640
178 1 1 0.0 0.000000 8.342576 129.309928
179 1 1 0.0 0.000000 8.342576 133.481216
180 1 1 0.0 0.000000 8.342576 137.652504
181 1 1 0.0 0.000000 8.342576 141.823792
182 1 1 0.0 0.000000 8.342576 145.995080
183 1 1 0.0 0.000000 8.342576 150.166368
184 1 1 0.0 0.000000 10.428220 2.085644
185 1 1 0.0 0.000000 10.428220 6.256932
186 1 1 0.0 0.000000 10.428220 10.428220
187 1 1 0.0 0.000000 10.428220 14.599508
188 1 1 0.0 0.000000 10.428220 18.770796
189 1 1 0.0 0.000000 10.428220 22.942084
190 1 1 0.0 0.000000 10.428220 27.113372
191 1 1 0.0 0.000000 10.428220 31.284660
192 1 1 0.0 0.000000 10.428220 35.455948
193 1 1 0.0 0.000000 10.428220 39.627236
194 1 1 0.0 0.000000 10.428220 43.798524
195 1 1 0.0 0.000000 10.428220 47.969812
196 1 1 0.0 0.000000 10.428220 52.141100
197 1 1 0.0 0.000000 10.428220 56.312388
198 1 1 0.0 0.000000 10.428220 60.483676
199 1 1 0.0 0.000000 10.428220 64.654964
200 1 1 0.0 0.000000 10.428220 68.826252
201 1 1 0.0 0.000000 10.428220 72.997540
202 1 1 0.0 0.000000 10.428220 77.168828
203 1 1 0.0 0.000000 10.428220 81.340116
204 1 1 0.0 0.000000 10.428220 85.511404
205 1 1 0.0 0.000000 10.428220 89.682692
206 1 1 0.0 0.000000 10.428220 93.853980
207 1 1 0.0 0.000000 10.428220 98.025268
208 1 1 0.0 0.000000 10.428220 102.196556
209 1 1 0.0 0.000000 10.428220 106.367844
210 1 1 0.0 0.000000 10.428220 110.539132
211 1 1 0.0 0.000000 10.428220 114.710420
212 1 1 0.0 0.000000 10.428220 118.881708
213 1 1 0.0 0.000000 10.428220 123.052996
214 1 1 0.0 0.000000 10.428220 127.224284
215 1 1 0.0 0.000000 10.428220 131.395572
216 1 1 0.0 0.000000 10.428220 135.566860
217 1 1 0.0 0.000000 10.428220 139.738148
218 1 1 0.0 0.000000 10.428220 143.909436
219 1 1 0.0 0.000000 10.428220 148.080724
220 1 1 0.0 0.000000 12.513864 0.000000
221 1 1 0.0 0.000000 12.513864 4.171288
222 1 1 0.0 0.000000 12.513864 8.342576
223 1 1 0.0 0.000000 12.513864 12.513864
224 1 1 0.0 0.000000 12.513864 16.685152
225 1 1 0.0 0.000000 12.513864 20.856440
226 1 1 0.0 0.000000 12.513864 25.027728
227 1 1 0.0 0.000000 12.513864 29.199016
228 1 1 0.0 0.000000 12.513864 33.370304
229 1 1 0.0 0.000000 12.513864 37.541592
230 1 1 0.0 0.000000 12.513864 41.712880
231 1 1 0.0 0.000000 12.513864 45.884168
232 1 1 0.0 0.000000 12.513864 50.055456
233 1 1 0.0 0.000000 12.513864 54.226744
234 1 1 0.0 0.000000 12.513864 58.398032
235 1 1 0.0 0.000000 12.513864 62.569320
236 1 1 0.0 0.000000 12.513864 66.740608
237 1 1 0.0 0.000000 12.513864 70.911896
238 1 1 0.0 0.000000 12.513864 75.083184
239 1 1 0.0 0.000000 12.513864 79.254472
240 1 1 0.0 0.000000 12.513864 83.425760
241 1 1 0.0 0.000000 12.513864 87.597048
242 1 1 0.0 0.000000 12.513864 91.768336
243 1 1 0.0 0.000000 12.513864 95.939624
244 1 1 0.0 0.000000 12.513864 100.110912
245 1 1 0.0 0.000000 12.513864 104.282200
246 1 1 0.0 0.000000 12.513864 108.453488
247 1 1 0.0 0.000000 12.513864 112.624776
248 1 1 0.0 0.000000 12.513864 116.796064
249 1 1 0.0 0.000000 12.513864 120.967352
250 1 1 0.0 0.000000 12.513864 125.138640
251 1 1 0.0 0.000000 12.513864 129.309928
252 1 1 0.0 0.000000 12.513864 133.481216
253 1 1 0.0 0.000000 12.513864 137.652504
254 1 1 0.0 0.000000 12.513864 141.823792
255 1 1 0.0 0.000000 12.513864 145.995080
256 1 1 0.0 0.000000 12.513864 150.166368
257 1 1 0.0 0.000000 14.599508 2.085644
258 1 1 0.0 0.000000 14.599508 6.256932
259 1 1 0.0 0.000000 14.599508 10.428220
260 1 1 0.0 0.000000 14.599508 14.599508
261 1 1 0.0 0.000000 14.599508 18.770796
262 1 1 0.0 0.000000 14.599508 22.942084
263 1 1 0.0 0.000000 14.599508 27.113372
264 1 1 0.0 0.000000 14.599508 31.284660
265 1 1 0.0 0.000000 14.599508 35.455948
266 1 1 0.0 0.000000 14.599508 39.627236
267 1 1 0.0 0.000000 14.599508 43.798524
268 1 1 0.0 0.000000 14.599508 47.969812
269 1 1 0.0 0.000000 14.599508 52.141100
270 1 1 0.0 0.000000 14.599508 56.312388
271 1 1 0.0 0.000000 14.599508 60.483676
272 1 1 0.0 0.000000 14.599508 64.654964
273 1 1 0.0 0.000000 14.599508 68.826252
274 1 1 0.0 0.000000 14.599508 72.997540
275 1 1 0.0 0.000000 14.599508 77.168828
276 1 1 0.0 0.000000 14.599508 81.340116
277 1 1 0.0 0.000000 14.599508 85.511404
278 1 1 0.0 0.000000 14.599508 89.682692
279 1 1 0.0 0.000000 14.599508 93.853980
280 1 1 0.0 0.000000 14.599508 98.025268
281 1 1 0.0 0.000000 14.599508 102.196556
282 1 1 0.0 0.000000 14.599508 106.367844
283 1 1 0.0 0.000000 14.599508 110.539132
284 1 1 0.0 0.000000 14.599508 114.710420
285 1 1 0.0 0.000000 14.599508 118.881708
286 1 1 0.0 0.000000 14.599508 123.052996
287 1 1 0.0 0.000000 14.599508 127.224284
288 1 1 0.0 0.000000 14.599508 131.395572
289 1 1 0.0 0.000000 14.599508 135.566860
290 1 1 0.0 0.000000 14.599508 139.738148
291 1 1 0.0 0.000000 14.599508 143.909436
292 1 1 0.0 0.000000 14.599508 148.080724
293 1 1 0.0 0.000000 16.685152 0.000000
294 1 1 0.0 0.000000 16.685152 4.171288
295 1 1 0.0 0.000000 16.685152 8.342576
296 1 1 0.0 0.000000 16.685152 12.513864
297 1 1 0.0 0.000000 16.685152 16.685152
298 1 1 0.0 0.000000 16.685152 20.856440
299 1 1 0.0 0.000000 16.685152 25.027728
300 1 1 0.0 0.000000 16.685152 29.199016
301 1 1 0.0 0.000000 16.685152 33.370304
302 1 1 0.0 0.000000 16.685152 37.541592
303 1 1 0.0 0.000000 16.685152 41.712880
304 1 1 0.0 0.000000 16.685152 45.884168
305 1 1 0.0 0.000000 16.685152 50.055456
306 1 1 0.0 0.000000 16.685152 54.226744
307 1 1 0.0 0.000000 16.685152 58.398032
308 1 1 0.0 0.000000 16.685152 62.569320
309 1 1 0.0 0.000000 16.685152 66.740608
310 1 1 0.0 0.000000 16.685152 70.911896
311 1 1 0.0 0.000000 16.685152 75.083184
312 1 1 0.0 0.000000 16.685152 79.254472
313 1 1 0.0 0.000000 16.685152 83.425760
314 1 1 0.0 0.000000 16.685152 87.597048
315 1 1 0.0 0.000000 16.685152 91.768336
316 1 1 0.0 0.000000 16.685152 95.939624
317 1 1 0.0 0.000000 16.685152 100.110912
318 1 1 0.0 0.000000 16.685152 104.282200
319 1 1 0.0 0.000000 16.685152 108.453488
320 1 1 0.0 0.000000 16.685152 112.624776
321 1 1 0.0 0.000000 16.685152 116.796064
322 1 1 0.0 0.000000 16.685152 120.967352
323 1 1 0.0 0.000000 16.685152 125.138640
324 1 1 0.0 0.000000 16.685152 129.309928
325 1 1 0.0 0.000000 16.685152 133.481216
326 1 1 0.0 0.000000 16.685152 137.652504
327 1 1 0.0 0.000000 16.685152 141.823792
328 1 1 0.0 0.000000 16.685152 145.995080
329 1 1 0.0 0.000000 16.685152 150.166368
330 1 1 0.0 0.000000 18.770796 2.085644
331 1 1 0.0 0.000000 18.770796 6.256932
332 1 1 0.0 0.000000 18.770796 10.428220
333 1 1 0.0 0.000000 18.770796 14.599508
334 1 1 0.0 0.000000 18.770796 18.770796
335 1 1 0.0 0.000000 18.770796 22.942084
336 1 1 0.0 0.000000 18.770796 27.113372
337 1 1 0.0 0.000000 18.770796 31.284660
338 1 1 0.0 0.000000 18.770796 35.455948
339 1 1 0.0 0.000000 18.770796 39.627236
340 1 1 0.0 0.000000 18.770796 43.798524
341 1 1 0.0 0.000000 18.770796 47.969812
342 1 1 0.0 0.000000 18.770796 52.141100
343 1 1 0.0 0.000000 18.770796 56.312388
344 1 1 0.0 0.000000 18.770796 60.483676
345 1 1 0.0 0.000000 18.770796 64.654964
346 1 1 0.0 0.000000 18.770796 68.826252
347 1 1 0.0 0.000000 18.770796 72.997540
348 1 1 0.0 0.000000 18.770796 77.168828
349 1 1 0.0 0.000000 18.770796 81.340116
350 1 1 0.0 0.000000 18.770796 85.511404
351 1 1 0.0 0.000000 18.770796 89.682692
352 1 1 0.0 0.000000 18.770796 93.853980
353 1 1 0.0 0.000000 18.770796 98.025268
354 1 1 0.0 0.000000 18.770796 102.196556
355 1 1 0.0 0.000000 18.770796 106.367844
356 1 1 0.0 0.000000 18.770796 110.539132
357 1 1 0.0 0.000000 18.770796 114.710420
358 1 1 0.0 0.000000 18.770796 118.881708
359 1 1 0.0 0.000000 18.770796 123.052996
360 1 1 0.0 0.000000 18.770796 127.224284
361 1 1 0.0 0.000000 18.770796 131.395572
362 1 1 0.0 0.000000 18.770796 135.566860
363 1 1 0.0 0.000000 18.770796 139.738148
364 1 1 0.0 0.000000 18.770796 143.909436
365 1 1 0.0 0.000000 18.770796 148.080724
366 1 1 0.0 0.000000 20.856440 0.000000
367 1 1 0.0 0.000000 20.856440 4.171288
368 1 1 0.0 0.000000 20.856440 8.342576
369 1 1 0.0 0.000000 20.856440 12.513864
370 1 1 0.0 0.000000 20.856440 16.685152
371 1 1 0.0 0.000000 20.856440 20.856440
372 1 1 0.0 0.000000 20.856440 25.027728
373 1 1 0.0 0.000000 20.856440 29.199016
374 1 1 0.0 0.000000 20.856440 33.370304
375 1 1 0.0 0.000000 20.856440 37.541592
376 1 1 0.0 0.000000 20.856440 41.712880
377 1 1 0.0 0.000000 20.856440 45.884168
378 1 1 0.0 0.000000 20.856440 50.055456
379 1 1 0.0 0.000000 20.856440 54.226744
380 1 1 0.0 0.000000 20.856440 58.398032
381 1 1 0.0 0.000000 20.856440 62.569320
382 1 1 0.0 0.000000 20.856440 66.740608
383 1 1 0.0 0.000000 20.856440 70.911896
384 1 1 0.0 0.000000 20.856440 75.083184
385 1 1 0.0 0.000000 20.856440 79.254472
386 1 1 0.0 0.000000 20.856440 83.425760
387 1 1 0.0 0.000000 20.856440 87.597048
388 1 1 0.0 0.000000 20.856440 91.768336
389 1 1 0.0 0.000000 20.856440 95.939624
390 1 1 0.0 0.000000 20.856440 100.110912
391 1 1 0.0 0.000000 20.856440 104.282200
392 1 1 0.0 0.000000 20.856440 108.453488
393 1 1 0.0 0.000000 20.856440 112.624776
394 1 1 0.0 0.000000 20.856440 116.796064
395 1 1 0.0 0.000000 20.856440 120.967352
396 1 1 0.0 0.000000 20.856440 125.138640
397 1 1 0.0 0.000000 20.856440 129.309928
398 1 1 0.0 0.000000 20.856440 133.481216
399 1 1 0.0 0.000000 20.856440 137.652504
400 1 1 0.0 0.000000 20.856440 141.823792
401 1 1 0.0 0.000000 20.856440 145.995080
402 1 1 0.0 0.000000 20.856440 150.166368
403 1 1 0.0 0.000000 22.942084 2.085644
404 1 1 0.0 0.000000 22.942084 6.256932
405 1 1 0.0 0.000000 22.942084 10.428220
406 1 1 0.0 0.000000 22.942084 14.599508
407 1 1 0.0 0.000000 22.942084 18.770796
408 1 1 0.0 0.000000 22.942084 22.942084
409 1 1 0.0 0.000000 22.942084 27.113372
410 1 1 0.0 0.000000 22.942084 31.284660
411 1 1 0.0 0.000000 22.942084 35.455948
412 1 1 0.0 0.000000 22.942084 39.627236
413 1 1 0.0 0.000000 22.942084 43.798524
414 1 1 0.0 0.000000 22.942084 47.969812
415 1 1 0.0 0.000000 22.942084 52.141100
416 1 1 0.0 0.000000 22.942084 56.312388
417 1 1 0.0 0.000000 22.942084 60.483676
418 1 1 0.0 0.000000 22.942084 64.654964
419 1 1 0.0 0.000000 22.942084 68.826252
420 1 1 0.0 0.000000 22.942084 72.997540
421 1 1 0.0 0.000000 22.942084 77.168828
422 1 1 0.0 0.000000 22.942084 81.340116
423 1 1 0.0 0.000000 22.942084 85.511404
424 1 1 0.0 0.000000 22.942084 89.682692
425 1 1 0.0 0.000000 22.942084 93.853980
426 1 1 0.0 0.000000 22.942084 98.025268
427 1 1 0.0 0.000000 22.942084 102.196556
428 1 1 0.0 0.000000 22.942084 106.367844
429 1 1 0.0 0.000000 22.942084 110.539132
430 1 1 0.0 0.000000 22.942084 114.710420
431 1 1 0.0 0.000000 22.942084 118.881708
432 1 1 0.0 0.000000 22.942084 123.052996
433 1 1 0.0 0.000000 22.942084 127.224284
434 1 1 0.0 0.000000 22.942084 131.395572
435 1 1 0.0 0.000000 22.942084 135.566860
436 1 1 0.0 0.000000 22.942084 139.738148
437 1 1 0.0 0.000000 22.942084 143.909436
438 1 1 0.0 0.000000 22.942084 148.080724
439 1 1 0.0 0.000000 25.027728 0.000000
440 1 1 0.0 0.000000 25.027728 4.171288
441 1 1 0.0 0.000000 25.027728 8.342576
442 1 1 0.0 0.000000 25.027728 12.513864
443 1 1 0.0 0.000000 25.027728 16.685152
444 1 1 0.0 0.000000 25.027728 20.856440
445 1 1 0.0 0.000000 25.027728 25.027728
446 1 1 0.0 0.000000 25.027728 29.199016
447 1 1 0.0 0.000000 25.027728 33.370304
448 1 1 0.0 0.000000 25.027728 37.541592
449 1 1 0.0 0.000000 25.027728 41.712880
450 1 1 0.0 0.000000 25.027728 45.884168
451 1 1 0.0 0.000000 25.027728 50.055456
452 1 1 0.0 0.000000 25.027728 54.226744
453 1 1 0.0 0.000000 25.027728 58.398032
454 1 1 0.0 0.000000 25.027728 62.569320
455 1 1 0.0 0.000000 25.027728 66.740608
456 1 1 0.0 0.000000 25.027728 70.911896
457 1 1 0.0 0.000000 25.027728 75.083184
458 1 1 0.0 0.000000 25.027728 79.254472
459 1 1 0.0 0.000000 25.027728 83.425760
460 1 1 0.0 0.000000 25.027728 87.597048
461 1 1 0.0 0.000000 25.027728 91.768336
462 1 1 0.0 0.000000 25.027728 95.939624
463 1 1 0.0 0.000000 25.027728 100.110912
464 1 1 0.0 0.000000 25.027728 104.282200
465 1 1 0.0 0.000000 25.027728 108.453488
466 1 1 0.0 0.000000 25.027728 112.624776
467 1 1 0.0 0.000000 25.027728 116.796064
468 1 1 0.0 0.000000 25.027728 120.967352
469 1 1 0.0 0.000000 25.027728 125.138640
470 1 1 0.0 0.000000 25.027728 129.309928
471 1 1 0.0 0.000000 25.027728 133.481216
472 1 1 0.0 0.000000 25.027728 137.652504
473 1 1 0.0 0.000000 25.027728 141.823792
474 1 1 0.0 0.000000 25.027728 145.995080
475 1 1 0.0 0.000000 25.027728 150.166368
476 1 1 0.0 0.000000 27.113372 2.085644
477 1 1 0.0 0.000000 27.113372 6.256932
478 1 1 0.0 0.000000 27.113372 10.428220
479 1 1 0.0 0.000000 27.113372 14.599508
480 1 1 0.0 0.000000 27.113372 18.770796
481 1 1 0.0 0.000000 27.113372 22.942084
482 1 1 0.0 0.000000 27.113372 27.113372
483 1 1 0.0 0.000000 27.113372 31.284660
484 1 1 0.0 0.000000 27.113372 35.455948
485 1 1 0.0 0.000000 27.113372 39.627236
486 1 1 0.0 0.000000 27.113372 43.798524
487 1 1 0.0 0.000000 27.113372 47.969812
488 1 1 0.0 0.000000 27.113372 52.141100
489 1 1 0.0 0.000000 27.113372 56.312388
490 1 1 0.0 0.000000 27.113372 60.483676
491 1 1 0.0 0.000000 27.113372 64.654964
492 1 1 0.0 0.000000 27.113372 68.826252
493 1 1 0.0 0.000000 27.113372 72.997540
494 1 1 0.0 0.000000 27.113372 77.168828
495 1 1 0.0 0.000000 27.113372 81.340116
496 1 1 0.0 0.000000 27.113372 85.511404
497 1 1 0.0 0.000000 27.113372 89.682692
498 1 1 0.0 0.000000 27.113372 93.853980
499 1 1 0.0 0.000000 27.113372 98.025268
500 1 1 0.0 0.000000 27.113372 102.196556
501 1 1 0.0 0.000000 27.113372 106.367844
502 1 1 0.0 0.000000 27.113372 110.539132
503 1 1 0.0 0.000000 27.113372 114.710420
504 1 1 0.0 0.000000 27.113372 118.881708
505 1 1 0.0 0.000000 27.113372 123.052996
506 1 1 0.0 0.000000 27.113372 127.224284
507 1 1 0.0 0.000000 27.113372 131.395572
508 1 1 0.0 0.000000 27.113372 135.566860
509 1 1 0.0 0.000000 27.113372 139.738148
510 1 1 0.0 0.000000 27.113372 143.909436
511 1 1 0.0 0.000000 27.113372 148.080724
512 1 1 0.0 0.000000 29.199016 0.000000
513 1 1 0.0 0.000000 29.199016 4.171288
514 1 1 0.0 0.000000 29.199016 8.342576
515 1 1 0.0 0.000000 29.199016 12.513864
516 1 1 0.0 0.000000 29.199016 16.685152
517 1 1 0.0 0.000000 29.199016 20.856440
518 1 1 0.0 0.000000 29.199016 25.027728
519 1 1 0.0 0.000000 29.199016 29.199016
520 1 1 0.0 0.000000 29.199016 33.370304
521 1 1 0.0 0.000000 29.199016 37.541592
522 1 1 0.0 0.000000 29.199016 41.712880
523 1 1 0.0 0.000000 29.199016 45.884168
524 1 1 0.0 0.000000 29.199016 50.055456
525 1 1 0.0 0.000000 29.199016 54.226744
526 1 1 0.0 0.000000 29.199016 58.398032
527 1 1 0.0 0.000000 29.199016 62.569320
528 1 1 0.0 0.000000 29.199016 66.740608
529 1 1 0.0 0.000000 29.199016 70.911896
530 1 1 0.0 0.000000 29.199016 75.083184
531 1 1 0.0 0.000000 29.199016 79.254472
532 1 1 0.0 0.000000 29.199016 83.425760
533 1 1 0.0 0.000000 29.199016 87.597048
534 1 1 0.0 0.000000 29.199016 91.768336
535 1 1 0.0 0.000000 29.199016 95.939624
536 1 1 0.0 0.000000 29.199016 100.110912
537 1 1 0.0 0.000000 29.199016 104.282200
538 1 1 0.0 0.000000 29.199016 108.453488
539 1 1 0.0 0.000000 29.199016 112.624776
540 1 1 0.0 0.000000 29.199016 116.796064
541 1 1 0.0 0.000000 29.199016 120.967352
542 1 1 0.0 0.000000 29.199016 125.138640
543 1 1 0.0 0.000000 29.199016 129.309928
544 1 1 0.0 0.000000 29.199016 133.481216
545 1 1 0.0 0.000000 29.199016 137.652504
546 1 1 0.0 0.000000 29.199016 141.823792
547 1 1 0.0 0.000000 29.199016 145.995080
548 1 1 0.0 0.000000 29.199016 150.166368
549 1 1 0.0 0.000000 31.284660 2.085644
550 1 1 0.0 0.000000 31.284660 6.256932
551 1 1 0.0 0.000000 31.284660 10.428220
552 1 1 0.0 0.000000 31.284660 14.599508
553 1 1 0.0 0.000000 31.284660 18.770796
554 1 1 0.0 0.000000 31.284660 22.942084
555 1 1 0.0 0.000000 31.284660 27.113372
556 1 1 0.0 0.000000 31.284660 31.284660
557 1 1 0.0 0.000000 31.284660 35.455948
558 1 1 0.0 0.000000 31.284660 39.627236
559 1 1 0.0 0.000000 31.284660 43.798524
560 1 1 0.0 0.000000 31.284660 47.969812
561 1 1 0.0 0.000000 31.284660 52.141100
562 1 1 0.0 0.000000 31.284660 56.312388
563 1 1 0.0 0.000000 31.284660 60.483676
564 1 1 0.0 0.000000 31.284660 64.654964
565 1 1 0.0 0.000000 31.284660 68.826252
566 1 1 0.0 0.000000 31.284660 72.997540
567 1 1 0.0 0.000000 31.284660 77.168828
568 1 1 0.0 0.000000 31.284660 81.340116
569 1 1 0.0 0.000000 31.284660 85.511404
570 1 1 0.0 0.000000 31.284660 89.682692
571 1 1 0.0 0.000000 31.284660 93.853980
572 1 1 0.0 0.000000 31.284660 98.025268
573 1 1 0.0 0.000000 31.284660 102.196556
574 1 1 0.0 0.000000 31.284660 106.367844
575 1 1 0.0 0.000000 31.284660 110.539132
576 1 1 0.0 0.000000 31.284660 114.710420
577 1 1 0.0 0.000000 31.284660 118.881708
578 1 1 0.0 0.000000 31.284660 123.052996
579 1 1 0.0 0.000000 31.284660 127.224284
580 1 1 0.0 0.000000 31.284660 131.395572
581 1 1 0.0 0.000000 31.284660 135.566860
582 1 1 0.0 0.000000 31.284660 139.738148
583 1 1 0.0 0.000000 31.284660 143.909436
584 1 1 0.0 0.000000 31.284660 148.080724
585 1 1 0.0 0.000000 33.370304 0.000000
586 1 1 0.0 0.000000 33.370304 4.171288
587 1 1 0.0 0.000000 33.370304 8.342576
588 1 1 0.0 0.000000 33.370304 12.513864
589 1 1 0.0 0.000000 33.370304 16.685152
590 1 1 0.0 0.000000 33.370304 20.856440
591 1 1 0.0 0.000000 33.370304 25.027728
592 1 1 0.0 0.000000 33.370304 29.199016
593 1 1 0.0 0.000000 33.370304 33.370304
594 1 1 0.0 0.000000 33.370304 37.541592
595 1 1 0.0 0.000000 33.370304 41.712880
596 1 1 0.0 0.000000 33.370304 45.884168
597 1 1 0.0 0.000000 33.370304 50.055456
598 1 1 0.0 0.000000 33.370304 54.226744
599 1 1 0.0 0.000000 33.370304 58.398032
600 1 1 0.0 0.000000 33.370304 62.569320
601 1 1 0.0 0.000000 33.370304 66.740608
602 1 1 0.0 0.000000 33.370304 70.911896
603 1 1 0.0 0.000000 33.370304 75.083184
604 1 1 0.0 0.000000 33.370304 79.254472
605 1 1 0.0 0.000000 33.370304 83.425760
606 1 1 0.0 0.000000 33.370304 87.597048
607 1 1 0.0 0.000000 33.370304 91.768336
608 1 1 0.0 0.000000 33.370304 95.939624
609 1 1 0.0 0.000000 33.370304 100.110912
610 1 1 0.0 0.000000 33.370304 104.282200
611 1 1 0.0 0.000000 33.370304 108.453488
612 1 1 0.0 0.000000 33.370304 112.624776
613 1 1 0.0 0.000000 33.370304 116.796064
614 1 1 0.0 0.000000 33.370304 120.967352
615 1 1 0.0 0.000000 33.370304 125.138640
616 1 1 0.0 0.000000 33.370304 129.309928
617 1 1 0.0 0.000000 33.370304 133.481216
618 1 1 0.0 0.000000 33.370304 137.652504
619 1 1 0.0 0.000000 33.370304 141.823792
620 1 1 0.0 0.000000 33.370304 145.995080
621 1 1 0.0 0.000000 33.370304 150.166368
622 1 1 0.0 0.000000 35.455948 2.085644
623 1 1 0.0 0.000000 35.455948 6.256932
624 1 1 0.0 0.000000 35.455948 10.428220
625 1 1 0.0 0.000000 35.455948 14.599508
626 1 1 0.0 0.000000 35.455948 18.770796
627 1 1 0.0 0.000000 35.455948 22.942084
628 1 1 0.0 0.000000 35.455948 27.113372
629 1 1 0.0 0.000000 35.455948 31.284660
630 1 1 0.0 0.000000 35.455948 35.455948
631 1 1 0.0 0.000000 35.455948 39.627236
632 1 1 0.0 0.000000 35.455948 43.798524
633 1 1 0.0 0.000000 35.455948 47.969812
634 1 1 0.0 0.000000 35.455948 52.141100
635 1 1 0.0 0.000000 35.455948 56.312388
636 1 1 0.0 0.000000 35.455948 60.483676
637 1 1 0.0 0.000000 35.455948 64.654964
638 1 1 0.0 0.000000 35.455948 68.826252
639 1 1 0.0 0.000000 35.455948 72.997540
640 1 1 0.0 0.000000 35.455948 77.168828
641 1 1 0.0 0.000000 35.455948 81.340116
642 1 1 0.0 0.000000 35.455948 85.511404
643 1 1 0.0 0.000000 35.455948 89.682692
644 1 1 0.0 0.000000 35.455948 93.853980
645 1 1 0.0 0.000000 35.455948 98.025268
646 1 1 0.0 0.000000 35.455948 102.196556
647 1 1 0.0 0.000000 35.455948 106.367844
648 1 1 0.0 0.000000 35.455948 110.539132
649 1 1 0.0 0.000000 35.455948 114.710420
650 1 1 0.0 0.000000 35.455948 118.881708
651 1 1 0.0 0.000000 35.455948 123.052996
652 1 1 0.0 0.000000 35.455948 127.224284
653 1 1 0.0 0.000000 35.455948 131.395572
654 1 1 0.0 0.000000 35.455948 135.566860
655 1 1 0.0 0.000000 35.455948 139.738148
656 1 1 0.0 0.000000 35.455948 143.909436
657 1 1 0.0 0.000000 35.455948 148.080724
658 1 1 0.0 0.000000 37.541592 0.000000
659 1 1 0.0 0.000000 37.541592 4.171288
660 1 1 0.0 0.000000 37.541592 8.342576
661 1 1 0.0 0.000000 37.541592 12.513864
662 1 1 0.0 0.000000 37.541592 16.685152
663 1 1 0.0 0.000000 37.541592 20.856440
664 1 1 0.0 0.000000 37.541592 25.027728
665 1 1 0.0 0.000000 37.541592 29.199016
666 1 1 0.0 0.000000 37.541592 33.370304
667 1 1 0.0 0.000000 37.541592 37.541592
668 1 1 0.0 0.000000 37.541592 41.712880
669 1 1 0.0 0.000000 37.541592 45.884168
670 1 1 0.0 0.000000 37.541592 50.055456
671 1 1 0.0 0.000000 37.541592 54.226744
672 1 1 0.0 0.000000 37.541592 58.398032
673 1 1 0.0 0.000000 37.541592 62.569320
674 1 1 0.0 0.000000 37.541592 66.740608
675 1 1 0.0 0.000000 37.541592 70.911896
676 1 1 0.0 0.000000 37.541592 75.083184
677 1 1 0.0 0.000000 37.541592 79.254472
678 1 1 0.0 0.000000 37.541592 83.425760
679 1 1 0.0 0.000000 37.541592 87.597048
680 1 1 0.0 0.000000 37.541592 91.768336
681 1 1 0.0 0.000000 37.541592 95.939624
682 1 1 0.0 0.000000 37.541592 100.110912
683 1 1 0.0 0.000000 37.541592 104.282200
684 1 1 0.0 0.000000 37.541592 108.453488
685 1 1 0.0 0.000000 37.541592 112.624776
686 1 1 0.0 0.000000 37.541592 116.796064
687 1 1 0.0 0.000000 37.541592 120.967352
688 1 1 0.0 0.000000 37.541592 125.138640
689 1 1 0.0 0.000000 37.541592 129.309928
690 1 1 0.0 0.000000 37.541592 133.481216
691 1 1 0.0 0.000000 37.541592 137.652504
692 1 1 0.0 0.000000 37.541592 141.823792
693 1 1 0.0 0.000000 37.541592 145.995080
694 1 1 0.0 0.000000 37.541592 150.166368
695 1 1 0.0 0.000000 39.627236 2.085644
696 1 1 0.0 0.000000 39.627236 6.256932
697 1 1 0.0 0.000000 39.627236 10.428220
698 1 1 0.0 0.000000 39.627236 14.599508
699 1 1 0.0 0.000000 39.627236 18.770796
700 1 1 0.0 0.000000 39.627236 22.942084
701 1 1 0.0 0.000000 39.627236 27.113372
702 1 1 0.0 0.000000 39.627236 31.284660
703 1 1 0.0 0.000000 39.627236 35.455948
704 1 1 0.0 0.000000 39.627236 39.627236
705 1 1 0.0 0.000000 39.627236 43.798524
706 1 1 0.0 0.000000 39.627236 47.969812
707 1 1 0.0 0.000000 39.627236 52.141100
708 1 1 0.0 0.000000 39.627236 56.312388
709 1 1 0.0 0.000000 39.627236 60.483676
710 1 1 0.0 0.000000 39.627236 64.654964
711 1 1 0.0 0.000000 39.627236 68.826252
712 1 1 0.0 0.000000 39.627236 72.997540
713 1 1 0.0 0.000000 39.627236 77.168828
714 1 1 0.0 0.000000 39.627236 81.340116
715 1 1 0.0 0.000000 39.627236 85.511404
716 1 1 0.0 0.000000 39.627236 89.682692
717 1 1 0.0 0.000000 39.627236 93.853980
718 1 1 0.0 0.000000 39.627236 98.025268
719 1 1 0.0 0.000000 39.627236 102.196556
720 1 1 0.0 0.000000 39.627236 106.367844
721 1 1 0.0 0.000000 39.627236 110.539132
722 1 1 0.0 0.000000 39.627236 114.710420
723 1 1 0.0 0.000000 39.627236 118.881708
724 1 1 0.0 0.000000 39.627236 123.052996
725 1 1 0.0 0.000000 39.627236 127.224284
726 1 1 0.0 0.000000 39.627236 131.395572
727 1 1 0.0 0.000000 39.627236 135.566860
728 1 1 0.0 0.000000 39.627236 139.738148
729 1 1 0.0 0.000000 39.627236 143.909436
730 1 1 0.0 0.000000 39.627236 148.080724