39732
timestep 0 5.084700 5.084700 7.098580
Si -34.547739 -21.835990 6.561636
Si -34.095709 -24.378341 1.237701
Si -37.090090 -21.383960 4.786992
Si -36.638060 -23.926311 3.012347
O -33.529035 -21.564325 5.323935
O -37.656764 -24.197976 1.774645
O -34.276074 -20.817286 0.700758
O -36.818424 -22.402665 3.549291
O -36.909725 -24.945015 4.250048
O -36.071385 -21.655626 6.024693
O -35.114414 -24.106675 2.475402
O -34.367375 -23.359636 0.000000
Si -34.547739 -16.751290 6.561636
Si -34.095709 -19.293641 1.237701
Si -37.090090 -16.299260 4.786992
Si -36.638060 -18.841611 3.012347
O -33.529035 -16.479625 5.323935
O -37.656764 -19.113276 1.774645
O -34.276074 -15.732586 0.700758
O -36.818424 -17.317965 3.549291
O -36.909725 -19.860315 4.250048
O -36.071385 -16.570926 6.024693
O -35.114414 -19.021975 2.475402
O -34.367375 -18.274936 0.000000
Si -34.547739 -11.666590 6.561636
Si -34.095709 -14.208941 1.237701
Si -37.090090 -11.214560 4.786992
Si -36.638060 -13.756911 3.012347
O -33.529035 -11.394925 5.323935
O -37.656764 -14.028576 1.774645
O -34.276074 -10.647886 0.700758
O -36.818424 -12.233265 3.549291
O -36.909725 -14.775615 4.250048
O -36.071385 -11.486226 6.024693
O -35.114414 -13.937275 2.475402
O -34.367375 -13.190236 0.000000
Si -34.547739 -6.581890 6.561636
Si -34.095709 -9.124241 1.237701
Si -37.090090 -6.129860 4.786992
Si -36.638060 -8.672211 3.012347
O -33.529035 -6.310225 5.323935
O -37.656764 -8.943876 1.774645
O -34.276074 -5.563186 0.700758
O -36.818424 -7.148565 3.549291
O -36.909725 -9.690915 4.250048
O -36.071385 -6.401526 6.024693
O -35.114414 -8.852575 2.475402
O -34.367375 -8.105536 0.000000
Si -34.547739 -1.497190 6.561636
Si -34.095709 -4.039541 1.237701
Si -37.090090 -1.045160 4.786992
Si -36.638060 -3.587511 3.012347
O -33.529035 -1.225525 5.323935
O -37.656764 -3.859176 1.774645
O -34.276074 -0.478486 0.700758
O -36.818424 -2.063865 3.549291
O -36.909725 -4.606215 4.250048
O -36.071385 -1.316826 6.024693
O -35.114414 -3.767875 2.475402
O -34.367375 -3.020836 0.000000
Si -34.547739 3.587510 6.561636
Si -34.095709 1.045159 1.237701
Si -37.090090 4.039540 4.786992
Si -36.638060 1.497189 3.012347
O -33.529035 3.859175 5.323935
O -37.656764 1.225524 1.774645
O -34.276074 4.606214 0.700758
O -36.818424 3.020835 3.549291
O -36.909725 0.478485 4.250048
O -36.071385 3.767874 6.024693
O -35.114414 1.316825 2.475402
O -34.367375 2.063864 0.000000
Si -34.547739 8.672210 6.561636
Si -34.095709 6.129859 1.237701
Si -37.090090 9.124240 4.786992
Si -36.638060 6.581889 3.012347
O -33.529035 8.943875 5.323935
O -37.656764 6.310224 1.774645
O -34.276074 9.690914 0.700758
O -36.818424 8.105535 3.549291
O -36.909725 5.563185 4.250048
O -36.071385 8.852574 6.024693
O -35.114414 6.401525 2.475402
O -34.367375 7.148564 0.000000
Si -34.547739 13.756910 6.561636
Si -34.095709 11.214559 1.237701
Si -37.090090 14.208940 4.786992
Si -36.638060 11.666589 3.012347
O -33.529035 14.028575 5.323935
O -37.656764 11.394924 1.774645
O -34.276074 14.775614 0.700758
O -36.818424 13.190235 3.549291
O -36.909725 10.647885 4.250048
O -36.071385 13.937274 6.024693
O -35.114414 11.486225 2.475402
O -34.367375 12.233264 0.000000
Si -34.547739 18.841610 6.561636
Si -34.095709 16.299259 1.237701
Si -37.090090 19.293640 4.786992
Si -36.638060 16.751289 3.012347
O -33.529035 19.113275 5.323935
O -37.656764 16.479624 1.774645
O -34.276074 19.860314 0.700758
O -36.818424 18.274935 3.549291
O -36.909725 15.732585 4.250048
O -36.071385 19.021974 6.024693
O -35.114414 16.570925 2.475402
O -34.367375 17.317964 0.000000
Si -34.547739 23.926310 6.561636
Si -34.095709 21.383959 1.237701
Si -37.090090 24.378340 4.786992
Si -36.638060 21.835989 3.012347
O -33.529035 24.197975 5.323935
O -37.656764 21.564324 1.774645
O -34.276074 24.945014 0.700758
O -36.818424 23.359635 3.549291
O -36.909725 20.817285 4.250048
O -36.071385 24.106674 6.024693
O -35.114414 21.655625 2.475402
O -34.367375 22.402664 0.000000
Si -29.463039 -21.835990 6.561636
Si -29.011009 -24.378341 1.237701
Si -32.005390 -21.383960 4.786992
Si -31.553360 -23.926311 3.012347
O -28.444335 -21.564325 5.323935
O -32.572064 -24.197976 1.774645
O -29.191374 -20.817286 0.700758
O -31.733724 -22.402665 3.549291
O -31.825025 -24.945015 4.250048
O -30.986685 -21.655626 6.024693
O -30.029714 -24.106675 2.475402
O -29.282675 -23.359636 0.000000
Si -29.463039 -16.751290 6.561636
Si -29.011009 -19.293641 1.237701
Si -32.005390 -16.299260 4.786992
Si -31.553360 -18.841611 3.012347
O -28.444335 -16.479625 5.323935
O -32.572064 -19.113276 1.774645
O -29.191374 -15.732586 0.700758
O -31.733724 -17.317965 3.549291
O -31.825025 -19.860315 4.250048
O -30.986685 -16.570926 6.024693
O -30.029714 -19.021975 2.475402
O -29.282675 -18.274936 0.000000
Si -29.463039 -11.666590 6.561636
Si -29.011009 -14.208941 1.237701
Si -32.005390 -11.214560 4.786992
Si -31.553360 -13.756911 3.012347
O -28.444335 -11.394925 5.323935
O -32.572064 -14.028576 1.774645
O -29.191374 -10.647886 0.700758
O -31.733724 -12.233265 3.549291
O -31.825025 -14.775615 4.250048
O -30.986685 -11.486226 6.024693
O -30.029714 -13.937275 2.475402
O -29.282675 -13.190236 0.000000
Si -29.463039 -6.581890 6.561636
Si -29.011009 -9.124241 1.237701
Si -32.005390 -6.129860 4.786992
Si -31.553360 -8.672211 3.012347
O -28.444335 -6.310225 5.323935
O -32.572064 -8.943876 1.774645
O -29.191374 -5.563186 0.700758
O -31.733724 -7.148565 3.549291
O -31.825025 -9.690915 4.250048
O -30.986685 -6.401526 6.024693
O -30.029714 -8.852575 2.475402
O -29.282675 -8.105536 0.000000
Si -29.463039 -1.497190 6.561636
Si -29.011009 -4.039541 1.237701
Si -32.005390 -1.045160 4.786992
Si -31.553360 -3.587511 3.012347
O -28.444335 -1.225525 5.323935
O -32.572064 -3.859176 1.774645
O -29.191374 -0.478486 0.700758
O -31.733724 -2.063865 3.549291
O -31.825025 -4.606215 4.250048
O -30.986685 -1.316826 6.024693
O -30.029714 -3.767875 2.475402
O -29.282675 -3.020836 0.000000
Si -29.463039 3.587510 6.561636
Si -29.011009 1.045159 1.237701
Si -32.005390 4.039540 4.786992
Si -31.553360 1.497189 3.012347
O -28.444335 3.859175 5.323935
O -32.572064 1.225524 1.774645
O -29.191374 4.606214 0.700758
O -31.733724 3.020835 3.549291
O -31.825025 0.478485 4.250048
O -30.986685 3.767874 6.024693
O -30.029714 1.316825 2.475402
O -29.282675 2.063864 0.000000
Si -29.463039 8.672210 6.561636
Si -29.011009 6.129859 1.237701
Si -32.005390 9.124240 4.786992
Si -31.553360 6.581889 3.012347
O -28.444335 8.943875 5.323935
O -32.572064 6.310224 1.774645
O -29.191374 9.690914 0.700758
O -31.733724 8.105535 3.549291
O -31.825025 5.563185 4.250048
O -30.986685 8.852574 6.024693
O -30.029714 6.401525 2.475402
O -29.282675 7.148564 0.000000
Si -29.463039 13.756910 6.561636
Si -29.011009 11.214559 1.237701
Si -32.005390 14.208940 4.786992
Si -31.553360 11.666589 3.012347
O -28.444335 14.028575 5.323935
O -32.572064 11.394924 1.774645
O -29.191374 14.775614 0.700758
O -31.733724 13.190235 3.549291
O -31.825025 10.647885 4.250048
O -30.986685 13.937274 6.024693
O -30.029714 11.486225 2.475402
O -29.282675 12.233264 0.000000
Si -29.463039 18.841610 6.561636
Si -29.011009 16.299259 1.237701
Si -32.005390 19.293640 4.786992
Si -31.553360 16.751289 3.012347
O -28.444335 19.113275 5.323935
O -32.572064 16.479624 1.774645
O -29.191374 19.860314 0.700758
O -31.733724 18.274935 3.549291
O -31.825025 15.732585 4.250048
O -30.986685 19.021974 6.024693
O -30.029714 16.570925 2.475402
O -29.282675 17.317964 0.000000
Si -29.463039 23.926310 6.561636
Si -29.011009 21.383959 1.237701
Si -32.005390 24.378340 4.786992
Si -31.553360 21.835989 3.012347
O -28.444335 24.197975 5.323935
O -32.572064 21.564324 1.774645
O -29.191374 24.945014 0.700758
O -31.733724 23.359635 3.549291
O -31.825025 20.817285 4.250048
O -30.986685 24.106674 6.024693
O -30.029714 21.655625 2.475402
O -29.282675 22.402664 0.000000
Si -24.378339 -21.835990 6.561636
Si -23.926309 -24.378341 1.237701
Si -26.920690 -21.383960 4.786992
Si -26.468660 -23.926311 3.012347
O -23.359635 -21.564325 5.323935
O -27.487364 -24.197976 1.774645
O -24.106674 -20.817286 0.700758
O -26.649024 -22.402665 3.549291
O -26.740325 -24.945015 4.250048
O -25.901985 -21.655626 6.024693
O -24.945014 -24.106675 2.475402
O -24.197975 -23.359636 0.000000
Si -24.378339 -16.751290 6.561636
Si -23.926309 -19.293641 1.237701
Si -26.920690 -16.299260 4.786992
Si -26.468660 -18.841611 3.012347
O -23.359635 -16.479625 5.323935
O -27.487364 -19.113276 1.774645
O -24.106674 -15.732586 0.700758
O -26.649024 -17.317965 3.549291
O -26.740325 -19.860315 4.250048
O -25.901985 -16.570926 6.024693
O -24.945014 -19.021975 2.475402
O -24.197975 -18.274936 0.000000
Si -24.378339 -11.666590 6.561636
Si -23.926309 -14.208941 1.237701
Si -26.920690 -11.214560 4.786992
Si -26.468660 -13.756911 3.012347
O -23.359635 -11.394925 5.323935
O -27.487364 -14.028576 1.774645
O -24.106674 -10.647886 0.700758
O -26.649024 -12.233265 3.549291
O -26.740325 -14.775615 4.250048
O -25.901985 -11.486226 6.024693
O -24.945014 -13.937275 2.475402
O -24.197975 -13.190236 0.000000
Si -24.378339 -6.581890 6.561636
Si -23.926309 -9.124241 1.237701
Si -26.920690 -6.129860 4.786992
Si -26.468660 -8.672211 3.012347
O -23.359635 -6.310225 5.323935
O -27.487364 -8.943876 1.774645
O -24.106674 -5.563186 0.700758
O -26.649024 -7.148565 3.549291
O -26.740325 -9.690915 4.250048
O -25.901985 -6.401526 6.024693
O -24.945014 -8.852575 2.475402
O -24.197975 -8.105536 0.000000
Si -24.378339 -1.497190 6.561636
Si -23.926309 -4.039541 1.237701
Si -26.920690 -1.045160 4.786992
Si -26.468660 -3.587511 3.012347
O -23.359635 -1.225525 5.323935
O -27.487364 -3.859176 1.774645
O -24.106674 -0.478486 0.700758
O -26.649024 -2.063865 3.549291
O -26.740325 -4.606215 4.250048
O -25.901985 -1.316826 6.024693
O -24.945014 -3.767875 2.475402
O -24.197975 -3.020836 0.000000
Si -24.378339 3.587510 6.561636
Si -23.926309 1.045159 1.237701
Si -26.920690 4.039540 4.786992
Si -26.468660 1.497189 3.012347
O -23.359635 3.859175 5.323935
O -27.487364 1.225524 1.774645
O -24.106674 4.606214 0.700758
O -26.649024 3.020835 3.549291
O -26.740325 0.478485 4.250048
O -25.901985 3.767874 6.024693
O -24.945014 1.316825 2.475402
O -24.197975 2.063864 0.000000
Si -24.378339 8.672210 6.561636
Si -23.926309 6.129859 1.237701
Si -26.920690 9.124240 4.786992
Si -26.468660 6.581889 3.012347
O -23.359635 8.943875 5.323935
O -27.487364 6.310224 1.774645
O -24.106674 9.690914 0.700758
O -26.649024 8.105535 3.549291
O -26.740325 5.563185 4.250048
O -25.901985 8.852574 6.024693
O -24.945014 6.401525 2.475402
O -24.197975 7.148564 0.000000
Si -24.378339 13.756910 6.561636
Si -23.926309 11.214559 1.237701
Si -26.920690 14.208940 4.786992
Si -26.468660 11.666589 3.012347
O -23.359635 14.028575 5.323935
O -27.487364 11.394924 1.774645
O -24.106674 14.775614 0.700758
O -26.649024 13.190235 3.549291
O -26.740325 10.647885 4.250048
O -25.901985 13.937274 6.024693
O -24.945014 11.486225 2.475402
O -24.197975 12.233264 0.000000
Si -24.378339 18.841610 6.561636
Si -23.926309 16.299259 1.237701
Si -26.920690 19.293640 4.786992
Si -26.468660 16.751289 3.012347
O -23.359635 19.113275 5.323935
O -27.487364 16.479624 1.774645
O -24.106674 19.860314 0.700758
O -26.649024 18.274935 3.549291
O -26.740325 15.732585 4.250048
O -25.901985 19.021974 6.024693
O -24.945014 16.570925 2.475402
O -24.197975 17.317964 0.000000
Si -24.378339 23.926310 6.561636
Si -23.926309 21.383959 1.237701
Si -26.920690 24.378340 4.786992
Si -26.468660 21.835989 3.012347
O -23.359635 24.197975 5.323935
O -27.487364 21.564324 1.774645
O -24.106674 24.945014 0.700758
O -26.649024 23.359635 3.549291
O -26.740325 20.817285 4.250048
O -25.901985 24.106674 6.024693
O -24.945014 21.655625 2.475402
O -24.197975 22.402664 0.000000
Si -19.293639 -21.835990 6.561636
Si -18.841609 -24.378341 1.237701
Si -21.835990 -21.383960 4.786992
Si -21.383960 -23.926311 3.012347
O -18.274935 -21.564325 5.323935
O -22.402664 -24.197976 1.774645
O -19.021974 -20.817286 0.700758
O -21.564324 -22.402665 3.549291
O -21.655625 -24.945015 4.250048
O -20.817285 -21.655626 6.024693
O -19.860314 -24.106675 2.475402
O -19.113275 -23.359636 0.000000
Si -19.293639 -16.751290 6.561636
Si -18.841609 -19.293641 1.237701
Si -21.835990 -16.299260 4.786992
Si -21.383960 -18.841611 3.012347
O -18.274935 -16.479625 5.323935
O -22.402664 -19.113276 1.774645
O -19.021974 -15.732586 0.700758
O -21.564324 -17.317965 3.549291
O -21.655625 -19.860315 4.250048
O -20.817285 -16.570926 6.024693
O -19.860314 -19.021975 2.475402
O -19.113275 -18.274936 0.000000
Si -19.293639 -11.666590 6.561636
Si -18.841609 -14.208941 1.237701
Si -21.835990 -11.214560 4.786992
Si -21.383960 -13.756911 3.012347
O -18.274935 -11.394925 5.323935
O -22.402664 -14.028576 1.774645
O -19.021974 -10.647886 0.700758
O -21.564324 -12.233265 3.549291
O -21.655625 -14.775615 4.250048
O -20.817285 -11.486226 6.024693
O -19.860314 -13.937275 2.475402
O -19.113275 -13.190236 0.000000
Si -19.293639 -6.581890 6.561636
Si -18.841609 -9.124241 1.237701
Si -21.835990 -6.129860 4.786992
Si -21.383960 -8.672211 3.012347
O -18.274935 -6.310225 5.323935
O -22.402664 -8.943876 1.774645
O -19.021974 -5.563186 0.700758
O -21.564324 -7.148565 3.549291
O -21.655625 -9.690915 4.250048
O -20.817285 -6.401526 6.024693
O -19.860314 -8.852575 2.475402
O -19.113275 -8.105536 0.000000
Si -19.293639 -1.497190 6.561636
Si -18.841609 -4.039541 1.237701
Si -21.835990 -1.045160 4.786992
Si -21.383960 -3.587511 3.012347
O -18.274935 -1.225525 5.323935
O -22.402664 -3.859176 1.774645
O -19.021974 -0.478486 0.700758
O -21.564324 -2.063865 3.549291
O -21.655625 -4.606215 4.250048
O -20.817285 -1.316826 6.024693
O -19.860314 -3.767875 2.475402
O -19.113275 -3.020836 0.000000
Si -19.293639 3.587510 6.561636
Si -18.841609 1.045159 1.237701
Si -21.835990 4.039540 4.786992
Si -21.383960 1.497189 3.012347
O -18.274935 3.859175 5.323935
O -22.402664 1.225524 1.774645
O -19.021974 4.606214 0.700758
O -21.564324 3.020835 3.549291
O -21.655625 0.478485 4.250048
O -20.817285 3.767874 6.024693
O -19.860314 1.316825 2.475402
O -19.113275 2.063864 0.000000
Si -19.293639 8.672210 6.561636
Si -18.841609 6.129859 1.237701
Si -21.835990 9.124240 4.786992
Si -21.383960 6.581889 3.012347
O -18.274935 8.943875 5.323935
O -22.402664 6.310224 1.774645
O -19.021974 9.690914 0.700758
O -21.564324 8.105535 3.549291
O -21.655625 5.563185 4.250048
O -20.817285 8.852574 6.024693
O -19.860314 6.401525 2.475402
O -19.113275 7.148564 0.000000
Si -19.293639 13.756910 6.561636
Si -18.841609 11.214559 1.237701
Si -21.835990 14.208940 4.786992
Si -21.383960 11.666589 3.012347
O -18.274935 14.028575 5.323935
O -22.402664 11.394924 1.774645
O -19.021974 14.775614 0.700758
O -21.564324 13.190235 3.549291
O -21.655625 10.647885 4.250048
O -20.817285 13.937274 6.024693
O -19.860314 11.486225 2.475402
O -19.113275 12.233264 0.000000
Si -19.293639 18.841610 6.561636
Si -18.841609 16.299259 1.237701
Si -21.835990 19.293640 4.786992
Si -21.383960 16.751289 3.012347
O -18.274935 19.113275 5.323935
O -22.402664 16.479624 1.774645
O -19.021974 19.860314 0.700758
O -21.564324 18.274935 3.549291
O -21.655625 15.732585 4.250048
O -20.817285 19.021974 6.024693
O -19.860314 16.570925 2.475402
O -19.113275 17.317964 0.000000
Si -19.293639 23.926310 6.561636
Si -18.841609 21.383959 1.237701
Si -21.835990 24.378340 4.786992
Si -21.383960 21.835989 3.012347
O -18.274935 24.197975 5.323935
O -22.402664 21.564324 1.774645
O -19.021974 24.945014 0.700758
O -21.564324 23.359635 3.549291
O -21.655625 20.817285 4.250048
O -20.817285 24.106674 6.024693
O -19.860314 21.655625 2.475402
O -19.113275 22.402664 0.000000
Si -14.208939 -21.835990 6.561636
Si -13.756909 -24.378341 1.237701
Si -16.751290 -21.383960 4.786992
Si -16.299260 -23.926311 3.012347
O -13.190235 -21.564325 5.323935
O -17.317964 -24.197976 1.774645
O -13.937274 -20.817286 0.700758
O -16.479624 -22.402665 3.549291
O -16.570925 -24.945015 4.250048
O -15.732585 -21.655626 6.024693
O -14.775614 -24.106675 2.475402
O -14.028575 -23.359636 0.000000
Si -14.208939 -16.751290 6.561636
Si -13.756909 -19.293641 1.237701
Si -16.751290 -16.299260 4.786992
Si -16.299260 -18.841611 3.012347
O -13.190235 -16.479625 5.323935
O -17.317964 -19.113276 1.774645
O -13.937274 -15.732586 0.700758
O -16.479624 -17.317965 3.549291
O -16.570925 -19.860315 4.250048
O -15.732585 -16.570926 6.024693
O -14.775614 -19.021975 2.475402
O -14.028575 -18.274936 0.000000
Si -14.208939 -11.666590 6.561636
Si -13.756909 -14.208941 1.237701
Si -16.751290 -11.214560 4.786992
Si -16.299260 -13.756911 3.012347
O -13.190235 -11.394925 5.323935
O -17.317964 -14.028576 1.774645
O -13.937274 -10.647886 0.700758
O -16.479624 -12.233265 3.549291
O -16.570925 -14.775615 4.250048
O -15.732585 -11.486226 6.024693
O -14.775614 -13.937275 2.475402
O -14.028575 -13.190236 0.000000
Si -14.208939 -6.581890 6.561636
Si -13.756909 -9.124241 1.237701
Si -16.751290 -6.129860 4.786992
Si -16.299260 -8.672211 3.012347
O -13.190235 -6.310225 5.323935
O -17.317964 -8.943876 1.774645
O -13.937274 -5.563186 0.700758
O -16.479624 -7.148565 3.549291
O -16.570925 -9.690915 4.250048
O -15.732585 -6.401526 6.024693
O -14.775614 -8.852575 2.475402
O -14.028575 -8.105536 0.000000
Si -14.208939 -1.497190 6.561636
Si -13.756909 -4.039541 1.237701
Si -16.751290 -1.045160 4.786992
Si -16.299260 -3.587511 3.012347
O -13.190235 -1.225525 5.323935
O -17.317964 -3.859176 1.774645
O -13.937274 -0.478486 0.700758
O -16.479624 -2.063865 3.549291
O -16.570925 -4.606215 4.250048
O -15.732585 -1.316826 6.024693
O -14.775614 -3.767875 2.475402
O -14.028575 -3.020836 0.000000
Si -14.208939 3.587510 6.561636
Si -13.756909 1.045159 1.237701
Si -16.751290 4.039540 4.786992
Si -16.299260 1.497189 3.012347
O -13.190235 3.859175 5.323935
O -17.317964 1.225524 1.774645
O -13.937274 4.606214 0.700758
O -16.479624 3.020835 3.549291
O -16.570925 0.478485 4.250048
O -15.732585 3.767874 6.024693
O -14.775614 1.316825 2.475402
O -14.028575 2.063864 0.000000
Si -14.208939 8.672210 6.561636
Si -13.756909 6.129859 1.237701
Si -16.751290 9.124240 4.786992
Si -16.299260 6.581889 3.012347
O -13.190235 8.943875 5.323935
O -17.317964 6.310224 1.774645
O -13.937274 9.690914 0.700758
O -16.479624 8.105535 3.549291
O -16.570925 5.563185 4.250048
O -15.732585 8.852574 6.024693
O -14.775614 6.401525 2.475402
O -14.028575 7.148564 0.000000
Si -14.208939 13.756910 6.561636
Si -13.756909 11.214559 1.237701
Si -16.751290 14.208940 4.786992
Si -16.299260 11.666589 3.012347
O -13.190235 14.028575 5.323935
O -17.317964 11.394924 1.774645
O -13.937274 14.775614 0.700758
O -16.479624 13.190235 3.549291
O -16.570925 10.647885 4.250048
O -15.732585 13.937274 6.024693
O -14.775614 11.486225 2.475402
O -14.028575 12.233264 0.000000
Si -14.208939 18.841610 6.561636
Si -13.756909 16.299259 1.237701
Si -16.751290 19.293640 4.786992
Si -16.299260 16.751289 3.012347
O -13.190235 19.113275 5.323935
O -17.317964 16.479624 1.774645
O -13.937274 19.860314 0.700758
O -16.479624 18.274935 3.549291
O -16.570925 15.732585 4.250048
O -15.732585 19.021974 6.024693
O -14.775614 16.570925 2.475402
O -14.028575 17.317964 0.000000
Si -14.208939 23.926310 6.561636
Si -13.756909 21.383959 1.237701
Si -16.751290 24.378340 4.786992
Si -16.299260 21.835989 3.012347
O -13.190235 24.197975 5.323935
O -17.317964 21.564324 1.774645
O -13.937274 24.945014 0.700758
O -16.479624 23.359635 3.549291
O -16.570925 20.817285 4.250048
O -15.732585 24.106674 6.024693
O -14.775614 21.655625 2.475402
O -14.028575 22.402664 0.000000
Si -9.124239 -21.835990 6.561636
Si -8.672209 -24.378341 1.237701
Si -11.666590 -21.383960 4.786992
Si -11.214560 -23.926311 3.012347
O -8.105535 -21.564325 5.323935
O -12.233264 -24.197976 1.774645
O -8.852574 -20.817286 0.700758
O -11.394924 -22.402665 3.549291
O -11.486225 -24.945015 4.250048
O -10.647885 -21.655626 6.024693
O -9.690914 -24.106675 2.475402
O -8.943875 -23.359636 0.000000
Si -9.124239 -16.751290 6.561636
Si -8.672209 -19.293641 1.237701
Si -11.666590 -16.299260 4.786992
Si -11.214560 -18.841611 3.012347
O -8.105535 -16.479625 5.323935
O -12.233264 -19.113276 1.774645
O -8.852574 -15.732586 0.700758
O -11.394924 -17.317965 3.549291
O -11.486225 -19.860315 4.250048
O -10.647885 -16.570926 6.024693
O -9.690914 -19.021975 2.475402
O -8.943875 -18.274936 0.000000
Si -9.124239 -11.666590 6.561636
Si -8.672209 -14.208941 1.237701
Si -11.666590 -11.214560 4.786992
Si -11.214560 -13.756911 3.012347
O -8.105535 -11.394925 5.323935
O -12.233264 -14.028576 1.774645
O -8.852574 -10.647886 0.700758
O -11.394924 -12.233265 3.549291
O -11.486225 -14.775615 4.250048
O -10.647885 -11.486226 6.024693
O -9.690914 -13.937275 2.475402
O -8.943875 -13.190236 0.000000
Si -9.124239 -6.581890 6.561636
Si -8.672209 -9.124241 1.237701
Si -11.666590 -6.129860 4.786992
Si -11.214560 -8.672211 3.012347
O -8.105535 -6.310225 5.323935
O -12.233264 -8.943876 1.774645
O -8.852574 -5.563186 0.700758
O -11.394924 -7.148565 3.549291
O -11.486225 -9.690915 4.250048
O -10.647885 -6.401526 6.024693
O -9.690914 -8.852575 2.475402
O -8.943875 -8.105536 0.000000
Si -9.124239 -1.497190 6.561636
Si -8.672209 -4.039541 1.237701
Si -11.666590 -1.045160 4.786992
Si -11.214560 -3.587511 3.012347
O -8.105535 -1.225525 5.323935
O -12.233264 -3.859176 1.774645
O -8.852574 -0.478486 0.700758
O -11.394924 -2.063865 3.549291
O -11.486225 -4.606215 4.250048
O -10.647885 -1.316826 6.024693
O -9.690914 -3.767875 2.475402
O -8.943875 -3.020836 0.000000
Si -9.124239 3.587510 6.561636
Si -8.672209 1.045159 1.237701
Si -11.666590 4.039540 4.786992
Si -11.214560 1.497189 3.012347
O -8.105535 3.859175 5.323935
O -12.233264 1.225524 1.774645
O -8.852574 4.606214 0.700758
O -11.394924 3.020835 3.549291
O -11.486225 0.478485 4.250048
O -10.647885 3.767874 6.024693
O -9.690914 1.316825 2.475402
O -8.943875 2.063864 0.000000
Si -9.124239 8.672210 6.561636
Si -8.672209 6.129859 1.237701
Si -11.666590 9.124240 4.786992
Si -11.214560 6.581889 3.012347
O -8.105535 8.943875 5.323935
O -12.233264 6.310224 1.774645
O -8.852574 9.690914 0.700758
O -11.394924 8.105535 3.549291
O -11.486225 5.563185 4.250048
O -10.647885 8.852574 6.024693
O -9.690914 6.401525 2.475402
O -8.943875 7.148564 0.000000
Si -9.124239 13.756910 6.561636
Si -8.672209 11.214559 1.237701
Si -11.666590 14.208940 4.786992
Si -11.214560 11.666589 3.012347
O -8.105535 14.028575 5.323935
O -12.233264 11.394924 1.774645
O -8.852574 14.775614 0.700758
O -11.394924 13.190235 3.549291
O -11.486225 10.647885 4.250048
O -10.647885 13.937274 6.024693
O -9.690914 11.486225 2.475402
O -8.943875 12.233264 0.000000
Si -9.124239 18.841610 6.561636
Si -8.672209 16.299259 1.237701
Si -11.666590 19.293640 4.786992
Si -11.214560 16.751289 3.012347
O -8.105535 19.113275 5.323935
O -12.233264 16.479624 1.774645
O -8.852574 19.860314 0.700758
O -11.394924 18.274935 3.549291
O -11.486225 15.732585 4.250048
O -10.647885 19.021974 6.024693
O -9.690914 16.570925 2.475402
O -8.943875 17.317964 0.000000
Si -9.124239 23.926310 6.561636
Si -8.672209 21.383959 1.237701
Si -11.666590 24.378340 4.786992
Si -11.214560 21.835989 3.012347
O -8.105535 24.197975 5.323935
O -12.233264 21.564324 1.774645
O -8.852574 24.945014 0.700758
O -11.394924 23.359635 3.549291
O -11.486225 20.817285 4.250048
O -10.647885 24.106674 6.024693
O -9.690914 21.655625 2.475402
O -8.943875 22.402664 0.000000
Si -4.039539 -21.835990 6.561636
Si -3.587509 -24.378341 1.237701
Si -6.581890 -21.383960 4.786992
Si -6.129860 -23.926311 3.012347
O -3.020835 -21.564325 5.323935
O -7.148564 -24.197976 1.774645
O -3.767874 -20.817286 0.700758
O -6.310224 -22.402665 3.549291
O -6.401525 -24.945015 4.250048
O -5.563185 -21.655626 6.024693
O -4.606214 -24.106675 2.475402
O -3.859175 -23.359636 0.000000
Si -4.039539 -16.751290 6.561636
Si -3.587509 -19.293641 1.237701
Si -6.581890 -16.299260 4.786992
Si -6.129860 -18.841611 3.012347
O -3.020835 -16.479625 5.323935
O -7.148564 -19.113276 1.774645
O -3.767874 -15.732586 0.700758
O -6.310224 -17.317965 3.549291
O -6.401525 -19.860315 4.250048
O -5.563185 -16.570926 6.024693
O -4.606214 -19.021975 2.475402
O -3.859175 -18.274936 0.000000
Si -4.039539 -11.666590 6.561636
Si -3.587509 -14.208941 1.237701
Si -6.581890 -11.214560 4.786992
Si -6.129860 -13.756911 3.012347
O -3.020835 -11.394925 5.323935
O -7.148564 -14.028576 1.774645
O -3.767874 -10.647886 0.700758
O -6.310224 -12.233265 3.549291
O -6.401525 -14.775615 4.250048
O -5.563185 -11.486226 6.024693
O -4.606214 -13.937275 2.475402
O -3.859175 -13.190236 0.000000
Si -4.039539 -6.581890 6.561636
Si -3.587509 -9.124241 1.237701
Si -6.581890 -6.129860 4.786992
Si -6.129860 -8.672211 3.012347
O -3.020835 -6.310225 5.323935
O -7.148564 -8.943876 1.774645
O -3.767874 -5.563186 0.700758
O -6.310224 -7.148565 3.549291
O -6.401525 -9.690915 4.250048
O -5.563185 -6.401526 6.024693
O -4.606214 -8.852575 2.475402
O -3.859175 -8.105536 0.000000
Si -4.039539 -1.497190 6.561636
Si -3.587509 -4.039541 1.237701
Si -6.581890 -1.045160 4.786992
Si -6.129860 -3.587511 3.012347
O -3.020835 -1.225525 5.323935
O -7.148564 -3.859176 1.774645
O -3.767874 -0.478486 0.700758
O -6.310224 -2.063865 3.549291
O -6.401525 -4.606215 4.250048
O -5.563185 -1.316826 6.024693
O -4.606214 -3.767875 2.475402
O -3.859175 -3.020836 0.000000
Si -4.039539 3.587510 6.561636
Si -3.587509 1.045159 1.237701
Si -6.581890 4.039540 4.786992
Si -6.129860 1.497189 3.012347
O -3.020835 3.859175 5.323935
O -7.148564 1.225524 1.774645
O -3.767874 4.606214 0.700758
O -6.310224 3.020835 3.549291
O -6.401525 0.478485 4.250048
O -5.563185 3.767874 6.024693
O -4.606214 1.316825 2.475402
O -3.859175 2.063864 0.000000
Si -4.039539 8.672210 6.561636
Si -3.587509 6.129859 1.237701
Si -6.581890 9.124240 4.786992
Si -6.129860 6.581889 3.012347
O -3.020835 8.943875 5.323935
O -7.148564 6.310224 1.774645
O -3.767874 9.690914 0.700758
O -6.310224 8.105535 3.549291
O -6.401525 5.563185 4.250048
O -5.563185 8.852574 6.024693
O -4.606214 6.401525 2.475402
O -3.859175 7.148564 0.000000
Si -4.039539 13.756910 6.561636
Si -3.587509 11.214559 1.237701
Si -6.581890 14.208940 4.786992
Si -6.129860 11.666589 3.012347
O -3.020835 14.028575 5.323935
O -7.148564 11.394924 1.774645
O -3.767874 14.775614 0.700758
O -6.310224 13.190235 3.549291
O -6.401525 10.647885 4.250048
O -5.563185 13.937274 6.024693
O -4.606214 11.486225 2.475402
O -3.859175 12.233264 0.000000
Si -4.039539 18.841610 6.561636
Si -3.587509 16.299259 1.237701
Si -6.581890 19.293640 4.786992
Si -6.129860 16.751289 3.012347
O -3.020835 19.113275 5.323935
O -7.148564 16.479624 1.774645
O -3.767874 19.860314 0.700758
O -6.310224 18.274935 3.549291
O -6.401525 15.732585 4.250048
O -5.563185 19.021974 6.024693
O -4.606214 16.570925 2.475402
O -3.859175 17.317964 0.000000
Si -4.039539 23.926310 6.561636
Si -3.587509 21.383959 1.237701
Si -6.581890 24.378340 4.786992
Si -6.129860 21.835989 3.012347
O -3.020835 24.197975 5.323935
O -7.148564 21.564324 1.774645
O -3.767874 24.945014 0.700758
O -6.310224 23.359635 3.549291
O -6.401525 20.817285 4.250048
O -5.563185 24.106674 6.024693
O -4.606214 21.655625 2.475402
O -3.859175 22.402664 0.000000
Si 1.045161 -21.835990 6.561636
Si 1.497191 -24.378341 1.237701
Si -1.497190 -21.383960 4.786992
Si -1.045160 -23.926311 3.012347
O 2.063865 -21.564325 5.323935
O -2.063864 -24.197976 1.774645
O 1.316826 -20.817286 0.700758
O -1.225524 -22.402665 3.549291
O -1.316825 -24.945015 4.250048
O -0.478485 -21.655626 6.024693
O 0.478486 -24.106675 2.475402
O 1.225525 -23.359636 0.000000
Si 1.045161 -16.751290 6.561636
Si 1.497191 -19.293641 1.237701
Si -1.497190 -16.299260 4.786992
Si -1.045160 -18.841611 3.012347
O 2.063865 -16.479625 5.323935
O -2.063864 -19.113276 1.774645
O 1.316826 -15.732586 0.700758
O -1.225524 -17.317965 3.549291
O -1.316825 -19.860315 4.250048
O -0.478485 -16.570926 6.024693
O 0.478486 -19.021975 2.475402
O 1.225525 -18.274936 0.000000
Si 1.045161 -11.666590 6.561636
Si 1.497191 -14.208941 1.237701
Si -1.497190 -11.214560 4.786992
Si -1.045160 -13.756911 3.012347
O 2.063865 -11.394925 5.323935
O -2.063864 -14.028576 1.774645
O 1.316826 -10.647886 0.700758
O -1.225524 -12.233265 3.549291
O -1.316825 -14.775615 4.250048
O -0.478485 -11.486226 6.024693
O 0.478486 -13.937275 2.475402
O 1.225525 -13.190236 0.000000
Si 1.045161 -6.581890 6.561636
Si 1.497191 -9.124241 1.237701
Si -1.497190 -6.129860 4.786992
Si -1.045160 -8.672211 3.012347
O 2.063865 -6.310225 5.323935
O -2.063864 -8.943876 1.774645
O 1.316826 -5.563186 0.700758
O -1.225524 -7.148565 3.549291
O -1.316825 -9.690915 4.250048
O -0.478485 -6.401526 6.024693
O 0.478486 -8.852575 2.475402
O 1.225525 -8.105536 0.000000
Si 1.045161 -1.497190 6.561636
Si 1.497191 -4.039541 1.237701
Si -1.497190 -1.045160 4.786992
Si -1.045160 -3.587511 3.012347
O 2.063865 -1.225525 5.323935
O -2.063864 -3.859176 1.774645
O 1.316826 -0.478486 0.700758
O -1.225524 -2.063865 3.549291
O -1.316825 -4.606215 4.250048
O -0.478485 -1.316826 6.024693
O 0.478486 -3.767875 2.475402
O 1.225525 -3.020836 0.000000
Si 1.045161 3.587510 6.561636
Si 1.497191 1.045159 1.237701
Si -1.497190 4.039540 4.786992
Si -1.045160 1.497189 3.012347
O 2.063865 3.859175 5.323935
O -2.063864 1.225524 1.774645
O 1.316826 4.606214 0.700758
O -1.225524 3.020835 3.549291
O -1.316825 0.478485 4.250048
O -0.478485 3.767874 6.024693
O 0.478486 1.316825 2.475402
O 1.225525 2.063864 0.000000
Si 1.045161 8.672210 6.561636
Si 1.497191 6.129859 1.237701
Si -1.497190 9.124240 4.786992
Si -1.045160 6.581889 3.012347
O 2.063865 8.943875 5.323935
O -2.063864 6.310224 1.774645
O 1.316826 9.690914 0.700758
O -1.225524 8.105535 3.549291
O -1.316825 5.563185 4.250048
O -0.478485 8.852574 6.024693
O 0.478486 6.401525 2.475402
O 1.225525 7.148564 0.000000
Si 1.045161 13.756910 6.561636
Si 1.497191 11.214559 1.237701
Si -1.497190 14.208940 4.786992
Si -1.045160 11.666589 3.012347
O 2.063865 14.028575 5.323935
O -2.063864 11.394924 1.774645
O 1.316826 14.775614 0.700758
O -1.225524 13.190235 3.549291
O -1.316825 10.647885 4.250048