33763
timestep 0 4.171288 4.171288 4.171288
Au -37.541592 -25.027728 0.000000
Au -37.541592 -25.027728 4.171288
Au -37.541592 -25.027728 8.342576
Au -37.541592 -25.027728 12.513864
Au -37.541592 -25.027728 16.685152
Au -37.541592 -25.027728 20.856440
Au -37.541592 -25.027728 25.027728
Au -37.541592 -25.027728 29.199016
Au -37.541592 -25.027728 33.370304
Au -37.541592 -25.027728 37.541592
Au -37.541592 -25.027728 41.712880
Au -37.541592 -25.027728 45.884168
Au -37.541592 -25.027728 50.055456
Au -37.541592 -25.027728 54.226744
Au -37.541592 -25.027728 58.398032
Au -37.541592 -25.027728 62.569320
Au -37.541592 -25.027728 66.740608
Au -37.541592 -25.027728 70.911896
Au -37.541592 -25.027728 75.083184
Au -37.541592 -25.027728 79.254472
Au -37.541592 -25.027728 83.425760
Au -37.541592 -25.027728 87.597048
Au -37.541592 -25.027728 91.768336
Au -37.541592 -25.027728 95.939624
Au -37.541592 -25.027728 100.110912
Au -37.541592 -25.027728 104.282200
Au -37.541592 -25.027728 108.453488
Au -37.541592 -25.027728 112.624776
Au -37.541592 -25.027728 116.796064
Au -37.541592 -25.027728 120.967352
Au -37.541592 -25.027728 125.138640
Au -37.541592 -25.027728 129.309928
Au -37.541592 -25.027728 133.481216
Au -37.541592 -25.027728 137.652504
Au -37.541592 -25.027728 141.823792
Au -37.541592 -25.027728 145.995080
Au -37.541592 -25.027728 150.166368
Au -37.541592 -22.942084 2.085644
Au -37.541592 -22.942084 6.256932
Au -37.541592 -22.942084 10.428220
Au -37.541592 -22.942084 14.599508
Au -37.541592 -22.942084 18.770796
Au -37.541592 -22.942084 22.942084
Au -37.541592 -22.942084 27.113372
Au -37.541592 -22.942084 31.284660
Au -37.541592 -22.942084 35.455948
Au -37.541592 -22.942084 39.627236
Au -37.541592 -22.942084 43.798524
Au -37.541592 -22.942084 47.969812
Au -37.541592 -22.942084 52.141100
Au -37.541592 -22.942084 56.312388
Au -37.541592 -22.942084 60.483676
Au -37.541592 -22.942084 64.654964
Au -37.541592 -22.942084 68.826252
Au -37.541592 -22.942084 72.997540
Au -37.541592 -22.942084 77.168828
Au -37.541592 -22.942084 81.340116
Au -37.541592 -22.942084 85.511404
Au -37.541592 -22.942084 89.682692
Au -37.541592 -22.942084 93.853980
Au -37.541592 -22.942084 98.025268
Au -37.541592 -22.942084 102.196556
Au -37.541592 -22.942084 106.367844
Au -37.541592 -22.942084 110.539132
Au -37.541592 -22.942084 114.710420
Au -37.541592 -22.942084 118.881708
Au -37.541592 -22.942084 123.052996
Au -37.541592 -22.942084 127.224284
Au -37.541592 -22.942084 131.395572
Au -37.541592 -22.942084 135.566860
Au -37.541592 -22.942084 139.738148
Au -37.541592 -22.942084 143.909436
Au -37.541592 -22.942084 148.080724
Au -37.541592 -20.856440 0.000000
Au -37.541592 -20.856440 4.171288
Au -37.541592 -20.856440 8.342576
Au -37.541592 -20.856440 12.513864
Au -37.541592 -20.856440 16.685152
Au -37.541592 -20.856440 20.856440
Au -37.541592 -20.856440 25.027728
Au -37.541592 -20.856440 29.199016
Au -37.541592 -20.856440 33.370304
Au -37.541592 -20.856440 37.541592
Au -37.541592 -20.856440 41.712880
Au -37.541592 -20.856440 45.884168
Au -37.541592 -20.856440 50.055456
Au -37.541592 -20.856440 54.226744
Au -37.541592 -20.856440 58.398032
Au -37.541592 -20.856440 62.569320
Au -37.541592 -20.856440 66.740608
Au -37.541592 -20.856440 70.911896
Au -37.541592 -20.856440 75.083184
Au -37.541592 -20.856440 79.254472
Au -37.541592 -20.856440 83.425760
Au -37.541592 -20.856440 87.597048
Au -37.541592 -20.856440 91.768336
Au -37.541592 -20.856440 95.939624
Au -37.541592 -20.856440 100.110912
Au -37.541592 -20.856440 104.282200
Au -37.541592 -20.856440 108.453488
Au -37.541592 -20.856440 112.624776
Au -37.541592 -20.856440 116.796064
Au -37.541592 -20.856440 120.967352
Au -37.541592 -20.856440 125.138640
Au -37.541592 -20.856440 129.309928
Au -37.541592 -20.856440 133.481216
Au -37.541592 -20.856440 137.652504
Au -37.541592 -20.856440 141.823792
Au -37.541592 -20.856440 145.995080
Au -37.541592 -20.856440 150.166368
Au -37.541592 -18.770796 2.085644
Au -37.541592 -18.770796 6.256932
Au -37.541592 -18.770796 10.428220
Au -37.541592 -18.770796 14.599508
Au -37.541592 -18.770796 18.770796
Au -37.541592 -18.770796 22.942084
Au -37.541592 -18.770796 27.113372
Au -37.541592 -18.770796 31.284660
Au -37.541592 -18.770796 35.455948
Au -37.541592 -18.770796 39.627236
Au -37.541592 -18.770796 43.798524
Au -37.541592 -18.770796 47.969812
Au -37.541592 -18.770796 52.141100
Au -37.541592 -18.770796 56.312388
Au -37.541592 -18.770796 60.483676
Au -37.541592 -18.770796 64.654964
Au -37.541592 -18.770796 68.826252
Au -37.541592 -18.770796 72.997540
Au -37.541592 -18.770796 77.168828
Au -37.541592 -18.770796 81.340116
Au -37.541592 -18.770796 85.511404
Au -37.541592 -18.770796 89.682692
Au -37.541592 -18.770796 93.853980
Au -37.541592 -18.770796 98.025268
Au -37.541592 -18.770796 102.196556
Au -37.541592 -18.770796 106.367844
Au -37.541592 -18.770796 110.539132
Au -37.541592 -18.770796 114.710420
Au -37.541592 -18.770796 118.881708
Au -37.541592 -18.770796 123.052996
Au -37.541592 -18.770796 127.224284
Au -37.541592 -18.770796 131.395572
Au -37.541592 -18.770796 135.566860
Au -37.541592 -18.770796 139.738148
Au -37.541592 -18.770796 143.909436
Au -37.541592 -18.770796 148.080724
Au -37.541592 -16.685152 0.000000
Au -37.541592 -16.685152 4.171288
Au -37.541592 -16.685152 8.342576
Au -37.541592 -16.685152 12.513864
Au -37.541592 -16.685152 16.685152
Au -37.541592 -16.685152 20.856440
Au -37.541592 -16.685152 25.027728
Au -37.541592 -16.685152 29.199016
Au -37.541592 -16.685152 33.370304
Au -37.541592 -16.685152 37.541592
Au -37.541592 -16.685152 41.712880
Au -37.541592 -16.685152 45.884168
Au -37.541592 -16.685152 50.055456
Au -37.541592 -16.685152 54.226744
Au -37.541592 -16.685152 58.398032
Au -37.541592 -16.685152 62.569320
Au -37.541592 -16.685152 66.740608
Au -37.541592 -16.685152 70.911896
Au -37.541592 -16.685152 75.083184
Au -37.541592 -16.685152 79.254472
Au -37.541592 -16.685152 83.425760
Au -37.541592 -16.685152 87.597048
Au -37.541592 -16.685152 91.768336
Au -37.541592 -16.685152 95.939624
Au -37.541592 -16.685152 100.110912
Au -37.541592 -16.685152 104.282200
Au -37.541592 -16.685152 108.453488
Au -37.541592 -16.685152 112.624776
Au -37.541592 -16.685152 116.796064
Au -37.541592 -16.685152 120.967352
Au -37.541592 -16.685152 125.138640
Au -37.541592 -16.685152 129.309928
Au -37.541592 -16.685152 133.481216
Au -37.541592 -16.685152 137.652504
Au -37.541592 -16.685152 141.823792
Au -37.541592 -16.685152 145.995080
Au -37.541592 -16.685152 150.166368
Au -37.541592 -14.599508 2.085644
Au -37.541592 -14.599508 6.256932
Au -37.541592 -14.599508 10.428220
Au -37.541592 -14.599508 14.599508
Au -37.541592 -14.599508 18.770796
Au -37.541592 -14.599508 22.942084
Au -37.541592 -14.599508 27.113372
Au -37.541592 -14.599508 31.284660
Au -37.541592 -14.599508 35.455948
Au -37.541592 -14.599508 39.627236
Au -37.541592 -14.599508 43.798524
Au -37.541592 -14.599508 47.969812
Au -37.541592 -14.599508 52.141100
Au -37.541592 -14.599508 56.312388
Au -37.541592 -14.599508 60.483676
Au -37.541592 -14.599508 64.654964
Au -37.541592 -14.599508 68.826252
Au -37.541592 -14.599508 72.997540
Au -37.541592 -14.599508 77.168828
Au -37.541592 -14.599508 81.340116
Au -37.541592 -14.599508 85.511404
Au -37.541592 -14.599508 89.682692
Au -37.541592 -14.599508 93.853980
Au -37.541592 -14.599508 98.025268
Au -37.541592 -14.599508 102.196556
Au -37.541592 -14.599508 106.367844
Au -37.541592 -14.599508 110.539132
Au -37.541592 -14.599508 114.710420
Au -37.541592 -14.599508 118.881708
Au -37.541592 -14.599508 123.052996
Au -37.541592 -14.599508 127.224284
Au -37.541592 -14.599508 131.395572
Au -37.541592 -14.599508 135.566860
Au -37.541592 -14.599508 139.738148
Au -37.541592 -14.599508 143.909436
Au -37.541592 -14.599508 148.080724
Au -37.541592 -12.513864 0.000000
Au -37.541592 -12.513864 4.171288
Au -37.541592 -12.513864 8.342576
Au -37.541592 -12.513864 12.513864
Au -37.541592 -12.513864 16.685152
Au -37.541592 -12.513864 20.856440
Au -37.541592 -12.513864 25.027728
Au -37.541592 -12.513864 29.199016
Au -37.541592 -12.513864 33.370304
Au -37.541592 -12.513864 37.541592
Au -37.541592 -12.513864 41.712880
Au -37.541592 -12.513864 45.884168
Au -37.541592 -12.513864 50.055456
Au -37.541592 -12.513864 54.226744
Au -37.541592 -12.513864 58.398032
Au -37.541592 -12.513864 62.569320
Au -37.541592 -12.513864 66.740608
Au -37.541592 -12.513864 70.911896
Au -37.541592 -12.513864 75.083184
Au -37.541592 -12.513864 79.254472
Au -37.541592 -12.513864 83.425760
Au -37.541592 -12.513864 87.597048
Au -37.541592 -12.513864 91.768336
Au -37.541592 -12.513864 95.939624
Au -37.541592 -12.513864 100.110912
Au -37.541592 -12.513864 104.282200
Au -37.541592 -12.513864 108.453488
Au -37.541592 -12.513864 112.624776
Au -37.541592 -12.513864 116.796064
Au -37.541592 -12.513864 120.967352
Au -37.541592 -12.513864 125.138640
Au -37.541592 -12.513864 129.309928
Au -37.541592 -12.513864 133.481216
Au -37.541592 -12.513864 137.652504
Au -37.541592 -12.513864 141.823792
Au -37.541592 -12.513864 145.995080
Au -37.541592 -12.513864 150.166368
Au -37.541592 -10.428220 2.085644
Au -37.541592 -10.428220 6.256932
Au -37.541592 -10.428220 10.428220
Au -37.541592 -10.428220 14.599508
Au -37.541592 -10.428220 18.770796
Au -37.541592 -10.428220 22.942084
Au -37.541592 -10.428220 27.113372
Au -37.541592 -10.428220 31.284660
Au -37.541592 -10.428220 35.455948
Au -37.541592 -10.428220 39.627236
Au -37.541592 -10.428220 43.798524
Au -37.541592 -10.428220 47.969812
Au -37.541592 -10.428220 52.141100
Au -37.541592 -10.428220 56.312388
Au -37.541592 -10.428220 60.483676
Au -37.541592 -10.428220 64.654964
Au -37.541592 -10.428220 68.826252
Au -37.541592 -10.428220 72.997540
Au -37.541592 -10.428220 77.168828
Au -37.541592 -10.428220 81.340116
Au -37.541592 -10.428220 85.511404
Au -37.541592 -10.428220 89.682692
Au -37.541592 -10.428220 93.853980
Au -37.541592 -10.428220 98.025268
Au -37.541592 -10.428220 102.196556
Au -37.541592 -10.428220 106.367844
Au -37.541592 -10.428220 110.539132
Au -37.541592 -10.428220 114.710420
Au -37.541592 -10.428220 118.881708
Au -37.541592 -10.428220 123.052996
Au -37.541592 -10.428220 127.224284
Au -37.541592 -10.428220 131.395572
Au -37.541592 -10.428220 135.566860
Au -37.541592 -10.428220 139.738148
Au -37.541592 -10.428220 143.909436
Au -37.541592 -10.428220 148.080724
Au -37.541592 -8.342576 0.000000
Au -37.541592 -8.342576 4.171288
Au -37.541592 -8.342576 8.342576
Au -37.541592 -8.342576 12.513864
Au -37.541592 -8.342576 16.685152
Au -37.541592 -8.342576 20.856440
Au -37.541592 -8.342576 25.027728
Au -37.541592 -8.342576 29.199016
Au -37.541592 -8.342576 33.370304
Au -37.541592 -8.342576 37.541592
Au -37.541592 -8.342576 41.712880
Au -37.541592 -8.342576 45.884168
Au -37.541592 -8.342576 50.055456
Au -37.541592 -8.342576 54.226744
Au -37.541592 -8.342576 58.398032
Au -37.541592 -8.342576 62.569320
Au -37.541592 -8.342576 66.740608
Au -37.541592 -8.342576 70.911896
Au -37.541592 -8.342576 75.083184
Au -37.541592 -8.342576 79.254472
Au -37.541592 -8.342576 83.425760
Au -37.541592 -8.342576 87.597048
Au -37.541592 -8.342576 91.768336
Au -37.541592 -8.342576 95.939624
Au -37.541592 -8.342576 100.110912
Au -37.541592 -8.342576 104.282200
Au -37.541592 -8.342576 108.453488
Au -37.541592 -8.342576 112.624776
Au -37.541592 -8.342576 116.796064
Au -37.541592 -8.342576 120.967352
Au -37.541592 -8.342576 125.138640
Au -37.541592 -8.342576 129.309928
Au -37.541592 -8.342576 133.481216
Au -37.541592 -8.342576 137.652504
Au -37.541592 -8.342576 141.823792
Au -37.541592 -8.342576 145.995080
Au -37.541592 -8.342576 150.166368
Au -37.541592 -6.256932 2.085644
Au -37.541592 -6.256932 6.256932
Au -37.541592 -6.256932 10.428220
Au -37.541592 -6.256932 14.599508
Au -37.541592 -6.256932 18.770796
Au -37.541592 -6.256932 22.942084
Au -37.541592 -6.256932 27.113372
Au -37.541592 -6.256932 31.284660
Au -37.541592 -6.256932 35.455948
Au -37.541592 -6.256932 39.627236
Au -37.541592 -6.256932 43.798524
Au -37.541592 -6.256932 47.969812
Au -37.541592 -6.256932 52.141100
Au -37.541592 -6.256932 56.312388
Au -37.541592 -6.256932 60.483676
Au -37.541592 -6.256932 64.654964
Au -37.541592 -6.256932 68.826252
Au -37.541592 -6.256932 72.997540
Au -37.541592 -6.256932 77.168828
Au -37.541592 -6.256932 81.340116
Au -37.541592 -6.256932 85.511404
Au -37.541592 -6.256932 89.682692
Au -37.541592 -6.256932 93.853980
Au -37.541592 -6.256932 98.025268
Au -37.541592 -6.256932 102.196556
Au -37.541592 -6.256932 106.367844
Au -37.541592 -6.256932 110.539132
Au -37.541592 -6.256932 114.710420
Au -37.541592 -6.256932 118.881708
Au -37.541592 -6.256932 123.052996
Au -37.541592 -6.256932 127.224284
Au -37.541592 -6.256932 131.395572
Au -37.541592 -6.256932 135.566860
Au -37.541592 -6.256932 139.738148
Au -37.541592 -6.256932 143.909436
Au -37.541592 -6.256932 148.080724
Au -37.541592 -4.171288 0.000000
Au -37.541592 -4.171288 4.171288
Au -37.541592 -4.171288 8.342576
Au -37.541592 -4.171288 12.513864
Au -37.541592 -4.171288 16.685152
Au -37.541592 -4.171288 20.856440
Au -37.541592 -4.171288 25.027728
Au -37.541592 -4.171288 29.199016
Au -37.541592 -4.171288 33.370304
Au -37.541592 -4.171288 37.541592
Au -37.541592 -4.171288 41.712880
Au -37.541592 -4.171288 45.884168
Au -37.541592 -4.171288 50.055456
Au -37.541592 -4.171288 54.226744
Au -37.541592 -4.171288 58.398032
Au -37.541592 -4.171288 62.569320
Au -37.541592 -4.171288 66.740608
Au -37.541592 -4.171288 70.911896
Au -37.541592 -4.171288 75.083184
Au -37.541592 -4.171288 79.254472
Au -37.541592 -4.171288 83.425760
Au -37.541592 -4.171288 87.597048
Au -37.541592 -4.171288 91.768336
Au -37.541592 -4.171288 95.939624
Au -37.541592 -4.171288 100.110912
Au -37.541592 -4.171288 104.282200
Au -37.541592 -4.171288 108.453488
Au -37.541592 -4.171288 112.624776
Au -37.541592 -4.171288 116.796064
Au -37.541592 -4.171288 120.967352
Au -37.541592 -4.171288 125.138640
Au -37.541592 -4.171288 129.309928
Au -37.541592 -4.171288 133.481216
Au -37.541592 -4.171288 137.652504
Au -37.541592 -4.171288 141.823792
Au -37.541592 -4.171288 145.995080
Au -37.541592 -4.171288 150.166368
Au -37.541592 -2.085644 2.085644
Au -37.541592 -2.085644 6.256932
Au -37.541592 -2.085644 10.428220
Au -37.541592 -2.085644 14.599508
Au -37.541592 -2.085644 18.770796
Au -37.541592 -2.085644 22.942084
Au -37.541592 -2.085644 27.113372
Au -37.541592 -2.085644 31.284660
Au -37.541592 -2.085644 35.455948
Au -37.541592 -2.085644 39.627236
Au -37.541592 -2.085644 43.798524
Au -37.541592 -2.085644 47.969812
Au -37.541592 -2.085644 52.141100
Au -37.541592 -2.085644 56.312388
Au -37.541592 -2.085644 60.483676
Au -37.541592 -2.085644 64.654964
Au -37.541592 -2.085644 68.826252
Au -37.541592 -2.085644 72.997540
Au -37.541592 -2.085644 77.168828
Au -37.541592 -2.085644 81.340116
Au -37.541592 -2.085644 85.511404
Au -37.541592 -2.085644 89.682692
Au -37.541592 -2.085644 93.853980
Au -37.541592 -2.085644 98.025268
Au -37.541592 -2.085644 102.196556
Au -37.541592 -2.085644 106.367844
Au -37.541592 -2.085644 110.539132
Au -37.541592 -2.085644 114.710420
Au -37.541592 -2.085644 118.881708
Au -37.541592 -2.085644 123.052996
Au -37.541592 -2.085644 127.224284
Au -37.541592 -2.085644 131.395572
Au -37.541592 -2.085644 135.566860
Au -37.541592 -2.085644 139.738148
Au -37.541592 -2.085644 143.909436
Au -37.541592 -2.085644 148.080724
Au -37.541592 -0.000000 0.000000
Au -37.541592 -0.000000 4.171288
Au -37.541592 -0.000000 8.342576
Au -37.541592 -0.000000 12.513864
Au -37.541592 -0.000000 16.685152
Au -37.541592 -0.000000 20.856440
Au -37.541592 -0.000000 25.027728
Au -37.541592 -0.000000 29.199016
Au -37.541592 -0.000000 33.370304
Au -37.541592 -0.000000 37.541592
Au -37.541592 -0.000000 41.712880
Au -37.541592 -0.000000 45.884168
Au -37.541592 -0.000000 50.055456
Au -37.541592 -0.000000 54.226744
Au -37.541592 -0.000000 58.398032
Au -37.541592 -0.000000 62.569320
Au -37.541592 -0.000000 66.740608
Au -37.541592 -0.000000 70.911896
Au -37.541592 -0.000000 75.083184
Au -37.541592 -0.000000 79.254472
Au -37.541592 -0.000000 83.425760
Au -37.541592 -0.000000 87.597048
Au -37.541592 -0.000000 91.768336
Au -37.541592 -0.000000 95.939624
Au -37.541592 -0.000000 100.110912
Au -37.541592 -0.000000 104.282200
Au -37.541592 -0.000000 108.453488
Au -37.541592 -0.000000 112.624776
Au -37.541592 -0.000000 116.796064
Au -37.541592 -0.000000 120.967352
Au -37.541592 -0.000000 125.138640
Au -37.541592 -0.000000 129.309928
Au -37.541592 -0.000000 133.481216
Au -37.541592 -0.000000 137.652504
Au -37.541592 -0.000000 141.823792
Au -37.541592 -0.000000 145.995080
Au -37.541592 -0.000000 150.166368
Au -37.541592 2.085644 2.085644
Au -37.541592 2.085644 6.256932
Au -37.541592 2.085644 10.428220
Au -37.541592 2.085644 14.599508
Au -37.541592 2.085644 18.770796
Au -37.541592 2.085644 22.942084
Au -37.541592 2.085644 27.113372
Au -37.541592 2.085644 31.284660
Au -37.541592 2.085644 35.455948
Au -37.541592 2.085644 39.627236
Au -37.541592 2.085644 43.798524
Au -37.541592 2.085644 47.969812
Au -37.541592 2.085644 52.141100
Au -37.541592 2.085644 56.312388
Au -37.541592 2.085644 60.483676
Au -37.541592 2.085644 64.654964
Au -37.541592 2.085644 68.826252
Au -37.541592 2.085644 72.997540
Au -37.541592 2.085644 77.168828
Au -37.541592 2.085644 81.340116
Au -37.541592 2.085644 85.511404
Au -37.541592 2.085644 89.682692
Au -37.541592 2.085644 93.853980
Au -37.541592 2.085644 98.025268
Au -37.541592 2.085644 102.196556
Au -37.541592 2.085644 106.367844
Au -37.541592 2.085644 110.539132
Au -37.541592 2.085644 114.710420
Au -37.541592 2.085644 118.881708
Au -37.541592 2.085644 123.052996
Au -37.541592 2.085644 127.224284
Au -37.541592 2.085644 131.395572
Au -37.541592 2.085644 135.566860
Au -37.541592 2.085644 139.738148
Au -37.541592 2.085644 143.909436
Au -37.541592 2.085644 148.080724
Au -37.541592 4.171288 0.000000
Au -37.541592 4.171288 4.171288
Au -37.541592 4.171288 8.342576
Au -37.541592 4.171288 12.513864
Au -37.541592 4.171288 16.685152
Au -37.541592 4.171288 20.856440
Au -37.541592 4.171288 25.027728
Au -37.541592 4.171288 29.199016
Au -37.541592 4.171288 33.370304
Au -37.541592 4.171288 37.541592
Au -37.541592 4.171288 41.712880
Au -37.541592 4.171288 45.884168
Au -37.541592 4.171288 50.055456
Au -37.541592 4.171288 54.226744
Au -37.541592 4.171288 58.398032
Au -37.541592 4.171288 62.569320
Au -37.541592 4.171288 66.740608
Au -37.541592 4.171288 70.911896
Au -37.541592 4.171288 75.083184
Au -37.541592 4.171288 79.254472
Au -37.541592 4.171288 83.425760
Au -37.541592 4.171288 87.597048
Au -37.541592 4.171288 91.768336
Au -37.541592 4.171288 95.939624
Au -37.541592 4.171288 100.110912
Au -37.541592 4.171288 104.282200
Au -37.541592 4.171288 108.453488
Au -37.541592 4.171288 112.624776
Au -37.541592 4.171288 116.796064
Au -37.541592 4.171288 120.967352
Au -37.541592 4.171288 125.138640
Au -37.541592 4.171288 129.309928
Au -37.541592 4.171288 133.481216
Au -37.541592 4.171288 137.652504
Au -37.541592 4.171288 141.823792
Au -37.541592 4.171288 145.995080
Au -37.541592 4.171288 150.166368
Au -37.541592 6.256932 2.085644
Au -37.541592 6.256932 6.256932
Au -37.541592 6.256932 10.428220
Au -37.541592 6.256932 14.599508
Au -37.541592 6.256932 18.770796
Au -37.541592 6.256932 22.942084
Au -37.541592 6.256932 27.113372
Au -37.541592 6.256932 31.284660
Au -37.541592 6.256932 35.455948
Au -37.541592 6.256932 39.627236
Au -37.541592 6.256932 43.798524
Au -37.541592 6.256932 47.969812
Au -37.541592 6.256932 52.141100
Au -37.541592 6.256932 56.312388
Au -37.541592 6.256932 60.483676
Au -37.541592 6.256932 64.654964
Au -37.541592 6.256932 68.826252
Au -37.541592 6.256932 72.997540
Au -37.541592 6.256932 77.168828
Au -37.541592 6.256932 81.340116
Au -37.541592 6.256932 85.511404
Au -37.541592 6.256932 89.682692
Au -37.541592 6.256932 93.853980
Au -37.541592 6.256932 98.025268
Au -37.541592 6.256932 102.196556
Au -37.541592 6.256932 106.367844
Au -37.541592 6.256932 110.539132
Au -37.541592 6.256932 114.710420
Au -37.541592 6.256932 118.881708
Au -37.541592 6.256932 123.052996
Au -37.541592 6.256932 127.224284
Au -37.541592 6.256932 131.395572
Au -37.541592 6.256932 135.566860
Au -37.541592 6.256932 139.738148
Au -37.541592 6.256932 143.909436
Au -37.541592 6.256932 148.080724
Au -37.541592 8.342576 0.000000
Au -37.541592 8.342576 4.171288
Au -37.541592 8.342576 8.342576
Au -37.541592 8.342576 12.513864
Au -37.541592 8.342576 16.685152
Au -37.541592 8.342576 20.856440
Au -37.541592 8.342576 25.027728
Au -37.541592 8.342576 29.199016
Au -37.541592 8.342576 33.370304
Au -37.541592 8.342576 37.541592
Au -37.541592 8.342576 41.712880
Au -37.541592 8.342576 45.884168
Au -37.541592 8.342576 50.055456
Au -37.541592 8.342576 54.226744
Au -37.541592 8.342576 58.398032
Au -37.541592 8.342576 62.569320
Au -37.541592 8.342576 66.740608
Au -37.541592 8.342576 70.911896
Au -37.541592 8.342576 75.083184
Au -37.541592 8.342576 79.254472
Au -37.541592 8.342576 83.425760
Au -37.541592 8.342576 87.597048
Au -37.541592 8.342576 91.768336
Au -37.541592 8.342576 95.939624
Au -37.541592 8.342576 100.110912
Au -37.541592 8.342576 104.282200
Au -37.541592 8.342576 108.453488
Au -37.541592 8.342576 112.624776
Au -37.541592 8.342576 116.796064
Au -37.541592 8.342576 120.967352
Au -37.541592 8.342576 125.138640
Au -37.541592 8.342576 129.309928
Au -37.541592 8.342576 133.481216
Au -37.541592 8.342576 137.652504
Au -37.541592 8.342576 141.823792
Au -37.541592 8.342576 145.995080
Au -37.541592 8.342576 150.166368
Au -37.541592 10.428220 2.085644
Au -37.541592 10.428220 6.256932
Au -37.541592 10.428220 10.428220
Au -37.541592 10.428220 14.599508
Au -37.541592 10.428220 18.770796
Au -37.541592 10.428220 22.942084
Au -37.541592 10.428220 27.113372
Au -37.541592 10.428220 31.284660
Au -37.541592 10.428220 35.455948
Au -37.541592 10.428220 39.627236
Au -37.541592 10.428220 43.798524
Au -37.541592 10.428220 47.969812
Au -37.541592 10.428220 52.141100
Au -37.541592 10.428220 56.312388
Au -37.541592 10.428220 60.483676
Au -37.541592 10.428220 64.654964
Au -37.541592 10.428220 68.826252
Au -37.541592 10.428220 72.997540
Au -37.541592 10.428220 77.168828
Au -37.541592 10.428220 81.340116
Au -37.541592 10.428220 85.511404
Au -37.541592 10.428220 89.682692
Au -37.541592 10.428220 93.853980
Au -37.541592 10.428220 98.025268
Au -37.541592 10.428220 102.196556
Au -37.541592 10.428220 106.367844
Au -37.541592 10.428220 110.539132
Au -37.541592 10.428220 114.710420
Au -37.541592 10.428220 118.881708
Au -37.541592 10.428220 123.052996
Au -37.541592 10.428220 127.224284
Au -37.541592 10.428220 131.395572
Au -37.541592 10.428220 135.566860
Au -37.541592 10.428220 139.738148
Au -37.541592 10.428220 143.909436
Au -37.541592 10.428220 148.080724
Au -37.541592 12.513864 0.000000
Au -37.541592 12.513864 4.171288
Au -37.541592 12.513864 8.342576
Au -37.541592 12.513864 12.513864
Au -37.541592 12.513864 16.685152
Au -37.541592 12.513864 20.856440
Au -37.541592 12.513864 25.027728
Au -37.541592 12.513864 29.199016
Au -37.541592 12.513864 33.370304
Au -37.541592 12.513864 37.541592
Au -37.541592 12.513864 41.712880
Au -37.541592 12.513864 45.884168
Au -37.541592 12.513864 50.055456
Au -37.541592 12.513864 54.226744
Au -37.541592 12.513864 58.398032
Au -37.541592 12.513864 62.569320
Au -37.541592 12.513864 66.740608
Au -37.541592 12.513864 70.911896
Au -37.541592 12.513864 75.083184
Au -37.541592 12.513864 79.254472
Au -37.541592 12.513864 83.425760
Au -37.541592 12.513864 87.597048
Au -37.541592 12.513864 91.768336
Au -37.541592 12.513864 95.939624
Au -37.541592 12.513864 100.110912
Au -37.541592 12.513864 104.282200
Au -37.541592 12.513864 108.453488
Au -37.541592 12.513864 112.624776
Au -37.541592 12.513864 116.796064
Au -37.541592 12.513864 120.967352
Au -37.541592 12.513864 125.138640
Au -37.541592 12.513864 129.309928
Au -37.541592 12.513864 133.481216
Au -37.541592 12.513864 137.652504
Au -37.541592 12.513864 141.823792
Au -37.541592 12.513864 145.995080
Au -37.541592 12.513864 150.166368
Au -37.541592 14.599508 2.085644
Au -37.541592 14.599508 6.256932
Au -37.541592 14.599508 10.428220
Au -37.541592 14.599508 14.599508
Au -37.541592 14.599508 18.770796
Au -37.541592 14.599508 22.942084
Au -37.541592 14.599508 27.113372
Au -37.541592 14.599508 31.284660
Au -37.541592 14.599508 35.455948
Au -37.541592 14.599508 39.627236
Au -37.541592 14.599508 43.798524
Au -37.541592 14.599508 47.969812
Au -37.541592 14.599508 52.141100
Au -37.541592 14.599508 56.312388
Au -37.541592 14.599508 60.483676
Au -37.541592 14.599508 64.654964
Au -37.541592 14.599508 68.826252
Au -37.541592 14.599508 72.997540
Au -37.541592 14.599508 77.168828
Au -37.541592 14.599508 81.340116
Au -37.541592 14.599508 85.511404
Au -37.541592 14.599508 89.682692
Au -37.541592 14.599508 93.853980
Au -37.541592 14.599508 98.025268
Au -37.541592 14.599508 102.196556
Au -37.541592 14.599508 106.367844
Au -37.541592 14.599508 110.539132
Au -37.541592 14.599508 114.710420
Au -37.541592 14.599508 118.881708
Au -37.541592 14.599508 123.052996
Au -37.541592 14.599508 127.224284
Au -37.541592 14.599508 131.395572
Au -37.541592 14.599508 135.566860
Au -37.541592 14.599508 139.738148
Au -37.541592 14.599508 143.909436
Au -37.541592 14.599508 148.080724
Au -37.541592 16.685152 0.000000
Au -37.541592 16.685152 4.171288
Au -37.541592 16.685152 8.342576
Au -37.541592 16.685152 12.513864
Au -37.541592 16.685152 16.685152
Au -37.541592 16.685152 20.856440
Au -37.541592 16.685152 25.027728
Au -37.541592 16.685152 29.199016
Au -37.541592 16.685152 33.370304
Au -37.541592 16.685152 37.541592
Au -37.541592 16.685152 41.712880
Au -37.541592 16.685152 45.884168
Au -37.541592 16.685152 50.055456
Au -37.541592 16.685152 54.226744
Au -37.541592 16.685152 58.398032
Au -37.541592 16.685152 62.569320
Au -37.541592 16.685152 66.740608
Au -37.541592 16.685152 70.911896
Au -37.541592 16.685152 75.083184
Au -37.541592 16.685152 79.254472
Au -37.541592 16.685152 83.425760
Au -37.541592 16.685152 87.597048
Au -37.541592 16.685152 91.768336
Au -37.541592 16.685152 95.939624
Au -37.541592 16.685152 100.110912
Au -37.541592 16.685152 104.282200
Au -37.541592 16.685152 108.453488
Au -37.541592 16.685152 112.624776
Au -37.541592 16.685152 116.796064
Au -37.541592 16.685152 120.967352
Au -37.541592 16.685152 125.138640
Au -37.541592 16.685152 129.309928
Au -37.541592 16.685152 133.481216
Au -37.541592 16.685152 137.652504
Au -37.541592 16.685152 141.823792
Au -37.541592 16.685152 145.995080
Au -37.541592 16.685152 150.166368
Au -37.541592 18.770796 2.085644
Au -37.541592 18.770796 6.256932
Au -37.541592 18.770796 10.428220
Au -37.541592 18.770796 14.599508
Au -37.541592 18.770796 18.770796
Au -37.541592 18.770796 22.942084
Au -37.541592 18.770796 27.113372
Au -37.541592 18.770796 31.284660
Au -37.541592 18.770796 35.455948
Au -37.541592 18.770796 39.627236
Au -37.541592 18.770796 43.798524
Au -37.541592 18.770796 47.969812
Au -37.541592 18.770796 52.141100
Au -37.541592 18.770796 56.312388
Au -37.541592 18.770796 60.483676
Au -37.541592 18.770796 64.654964
Au -37.541592 18.770796 68.826252
Au -37.541592 18.770796 72.997540
Au -37.541592 18.770796 77.168828
Au -37.541592 18.770796 81.340116
Au -37.541592 18.770796 85.511404
Au -37.541592 18.770796 89.682692
Au -37.541592 18.770796 93.853980
Au -37.541592 18.770796 98.025268
Au -37.541592 18.770796 102.196556
Au -37.541592 18.770796 106.367844
Au -37.541592 18.770796 110.539132
Au -37.541592 18.770796 114.710420
Au -37.541592 18.770796 118.881708
Au -37.541592 18.770796 123.052996
Au -37.541592 18.770796 127.224284
Au -37.541592 18.770796 131.395572
Au -37.541592 18.770796 135.566860
Au -37.541592 18.770796 139.738148
Au -37.541592 18.770796 143.909436
Au -37.541592 18.770796 148.080724
Au -37.541592 20.856440 0.000000
Au -37.541592 20.856440 4.171288
Au -37.541592 20.856440 8.342576
Au -37.541592 20.856440 12.513864
Au -37.541592 20.856440 16.685152
Au -37.541592 20.856440 20.856440
Au -37.541592 20.856440 25.027728
Au -37.541592 20.856440 29.199016
Au -37.541592 20.856440 33.370304
Au -37.541592 20.856440 37.541592
Au -37.541592 20.856440 41.712880
Au -37.541592 20.856440 45.884168
Au -37.541592 20.856440 50.055456
Au -37.541592 20.856440 54.226744
Au -37.541592 20.856440 58.398032
Au -37.541592 20.856440 62.569320
Au -37.541592 20.856440 66.740608
Au -37.541592 20.856440 70.911896
Au -37.541592 20.856440 75.083184
Au -37.541592 20.856440 79.254472
Au -37.541592 20.856440 83.425760
Au -37.541592 20.856440 87.597048
Au -37.541592 20.856440 91.768336
Au -37.541592 20.856440 95.939624
Au -37.541592 20.856440 100.110912
Au -37.541592 20.856440 104.282200
Au -37.541592 20.856440 108.453488
Au -37.541592 20.856440 112.624776
Au -37.541592 20.856440 116.796064
Au -37.541592 20.856440 120.967352
Au -37.541592 20.856440 125.138640
Au -37.541592 20.856440 129.309928
Au -37.541592 20.856440 133.481216
Au -37.541592 20.856440 137.652504
Au -37.541592 20.856440 141.823792
Au -37.541592 20.856440 145.995080
Au -37.541592 20.856440 150.166368
Au -37.541592 22.942084 2.085644
Au -37.541592 22.942084 6.256932
Au -37.541592 22.942084 10.428220
Au -37.541592 22.942084 14.599508
Au -37.541592 22.942084 18.770796
Au -37.541592 22.942084 22.942084
Au -37.541592 22.942084 27.113372
Au -37.541592 22.942084 31.284660
Au -37.541592 22.942084 35.455948
Au -37.541592 22.942084 39.627236
Au -37.541592 22.942084 43.798524
Au -37.541592 22.942084 47.969812
Au -37.541592 22.942084 52.141100
Au -37.541592 22.942084 56.312388
Au -37.541592 22.942084 60.483676
Au -37.541592 22.942084 64.654964
Au -37.541592 22.942084 68.826252
Au -37.541592 22.942084 72.997540
Au -37.541592 22.942084 77.168828
Au -37.541592 22.942084 81.340116
Au -37.541592 22.942084 85.511404
Au -37.541592 22.942084 89.682692
Au -37.541592 22.942084 93.853980
Au -37.541592 22.942084 98.025268
Au -37.541592 22.942084 102.196556
Au -37.541592 22.942084 106.367844
Au -37.541592 22.942084 110.539132
Au -37.541592 22.942084 114.710420
Au -37.541592 22.942084 118.881708