
33763 atoms

1 atom types

0.000000 4.171288 xlo xhi
0.000000 4.171288 ylo yhi
0.000000 4.171288 zlo zhi

Masses

1 196.967000

Atoms

1 1 1 0.0 -26.545914 -17.697276 0.000000
2 1 1 0.0 -26.545914 -17.697276 0.174533
3 1 1 0.0 -26.545914 -17.697276 0.349066
4 1 1 0.0 -26.545914 -17.697276 0.523599
5 1 1 0.0 -26.545914 -17.697276 0.698132
6 1 1 0.0 -26.545914 -17.697276 0.872665
7 1 1 0.0 -26.545914 -17.697276 1.047198
8 1 1 0.0 -26.545914 -17.697276 1.221730
9 1 1 0.0 -26.545914 -17.697276 1.396263
10 1 1 0.0 -26.545914 -17.697276 1.570796
11 1 1 0.0 -26.545914 -17.697276 1.745329
12 1 1 0.0 -26.545914 -17.697276 1.919862
13 1 1 0.0 -26.545914 -17.697276 2.094395
14 1 1 0.0 -26.545914 -17.697276 2.268928
15 1 1 0.0 -26.545914 -17.697276 2.443461
16 1 1 0.0 -26.545914 -17.697276 2.617994
17 1 1 0.0 -26.545914 -17.697276 2.792527
18 1 1 0.0 -26.545914 -17.697276 2.967060
19 1 1 0.0 -26.545914 -17.697276 3.141593
20 1 1 0.0 -26.545914 -17.697276 3.316126
21 1 1 0.0 -26.545914 -17.697276 3.490659
22 1 1 0.0 -26.545914 -17.697276 3.665191
23 1 1 0.0 -26.545914 -17.697276 3.839724
24 1 1 0.0 -26.545914 -17.697276 4.014257
25 1 1 0.0 -26.545914 -17.697276 4.188790
26 1 1 0.0 -26.545914 -17.697276 4.363323
27 1 1 0.0 -26.545914 -17.697276 4.537856
28 1 1 0.0 -26.545914 -17.697276 4.712389
29 1 1 0.0 -26.545914 -17.697276 4.886922
30 1 1 0.0 -26.545914 -17.697276 5.061455
31 1 1 0.0 -26.545914 -17.697276 5.235988
32 1 1 0.0 -26.545914 -17.697276 5.410521
33 1 1 0.0 -26.545914 -17.697276 5.585054
34 1 1 0.0 -26.545914 -17.697276 5.759587
35 1 1 0.0 -26.545914 -17.697276 5.934119
36 1 1 0.0 -26.545914 -17.697276 6.108652
37 1 1 0.0 -26.545914 -17.697276 6.283185
38 1 1 0.0 -28.705563 -16.129500 0.087266
39 1 1 0.0 -28.705563 -16.129500 0.261799
40 1 1 0.0 -28.705563 -16.129500 0.436332
41 1 1 0.0 -28.705563 -16.129500 0.610865
42 1 1 0.0 -28.705563 -16.129500 0.785398
43 1 1 0.0 -28.705563 -16.129500 0.959931
44 1 1 0.0 -28.705563 -16.129500 1.134464
45 1 1 0.0 -28.705563 -16.129500 1.308997
46 1 1 0.0 -28.705563 -16.129500 1.483530
47 1 1 0.0 -28.705563 -16.129500 1.658063
48 1 1 0.0 -28.705563 -16.129500 1.832596
49 1 1 0.0 -28.705563 -16.129500 2.007129
50 1 1 0.0 -28.705563 -16.129500 2.181662
51 1 1 0.0 -28.705563 -16.129500 2.356194
52 1 1 0.0 -28.705563 -16.129500 2.530727
53 1 1 0.0 -28.705563 -16.129500 2.705260
54 1 1 0.0 -28.705563 -16.129500 2.879793
55 1 1 0.0 -28.705563 -16.129500 3.054326
56 1 1 0.0 -28.705563 -16.129500 3.228859
57 1 1 0.0 -28.705563 -16.129500 3.403392
58 1 1 0.0 -28.705563 -16.129500 3.577925
59 1 1 0.0 -28.705563 -16.129500 3.752458
60 1 1 0.0 -28.705563 -16.129500 3.926991
61 1 1 0.0 -28.705563 -16.129500 4.101524
62 1 1 0.0 -28.705563 -16.129500 4.276057
63 1 1 0.0 -28.705563 -16.129500 4.450590
64 1 1 0.0 -28.705563 -16.129500 4.625123
65 1 1 0.0 -28.705563 -16.129500 4.799655
66 1 1 0.0 -28.705563 -16.129500 4.974188
67 1 1 0.0 -28.705563 -16.129500 5.148721
68 1 1 0.0 -28.705563 -16.129500 5.323254
69 1 1 0.0 -28.705563 -16.129500 5.497787
70 1 1 0.0 -28.705563 -16.129500 5.672320
71 1 1 0.0 -28.705563 -16.129500 5.846853
72 1 1 0.0 -28.705563 -16.129500 6.021386
73 1 1 0.0 -28.705563 -16.129500 6.195919
74 1 1 0.0 -30.533138 -14.561725 0.000000
75 1 1 0.0 -30.533138 -14.561725 0.174533
76 1 1 0.0 -30.533138 -14.561725 0.349066
77 1 1 0.0 -30.533138 -14.561725 0.523599
78 1 1 0.0 -30.533138 -14.561725 0.698132
79 1 1 0.0 -30.533138 -14.561725 0.872665
80 1 1 0.0 -30.533138 -14.561725 1.047198
81 1 1 0.0 -30.533138 -14.561725 1.221730
82 1 1 0.0 -30.533138 -14.561725 1.396263
83 1 1 0.0 -30.533138 -14.561725 1.570796
84 1 1 0.0 -30.533138 -14.561725 1.745329
85 1 1 0.0 -30.533138 -14.561725 1.919862
86 1 1 0.0 -30.533138 -14.561725 2.094395
87 1 1 0.0 -30.533138 -14.561725 2.268928
88 1 1 0.0 -30.533138 -14.561725 2.443461
89 1 1 0.0 -30.533138 -14.561725 2.617994
90 1 1 0.0 -30.533138 -14.561725 2.792527
91 1 1 0.0 -30.533138 -14.561725 2.967060
92 1 1 0.0 -30.533138 -14.561725 3.141593
93 1 1 0.0 -30.533138 -14.561725 3.316126
94 1 1 0.0 -30.533138 -14.561725 3.490659
95 1 1 0.0 -30.533138 -14.561725 3.665191
96 1 1 0.0 -30.533138 -14.561725 3.839724
97 1 1 0.0 -30.533138 -14.561725 4.014257
98 1 1 0.0 -30.533138 -14.561725 4.188790
99 1 1 0.0 -30.533138 -14.561725 4.363323
100 1 1 0.0 -30.533138 -14.561725 4.537856
101 1 1 0.0 -30.533138 -14.561725 4.712389
102 1 1 0.0 -30.533138 -14.561725 4.886922
103 1 1 0.0 -30.533138 -14.561725 5.061455
104 1 1 0.0 -30.533138 -14.561725 5.235988
105 1 1 0.0 -30.533138 -14.561725 5.410521
106 1 1 0.0 -30.533138 -14.561725 5.585054
107 1 1 0.0 -30.533138 -14.561725 5.759587
108 1 1 0.0 -30.533138 -14.561725 5.934119
109 1 1 0.0 -30.533138 -14.561725 6.108652
110 1 1 0.0 -30.533138 -14.561725 6.283185
111 1 1 0.0 -32.085433 -12.993949 0.087266
112 1 1 0.0 -32.085433 -12.993949 0.261799
113 1 1 0.0 -32.085433 -12.993949 0.436332
114 1 1 0.0 -32.085433 -12.993949 0.610865
115 1 1 0.0 -32.085433 -12.993949 0.785398
116 1 1 0.0 -32.085433 -12.993949 0.959931
117 1 1 0.0 -32.085433 -12.993949 1.134464
118 1 1 0.0 -32.085433 -12.993949 1.308997
119 1 1 0.0 -32.085433 -12.993949 1.483530
120 1 1 0.0 -32.085433 -12.993949 1.658063
121 1 1 0.0 -32.085433 -12.993949 1.832596
122 1 1 0.0 -32.085433 -12.993949 2.007129
123 1 1 0.0 -32.085433 -12.993949 2.181662
124 1 1 0.0 -32.085433 -12.993949 2.356194
125 1 1 0.0 -32.085433 -12.993949 2.530727
126 1 1 0.0 -32.085433 -12.993949 2.705260
127 1 1 0.0 -32.085433 -12.993949 2.879793
128 1 1 0.0 -32.085433 -12.993949 3.054326
129 1 1 0.0 -32.085433 -12.993949 3.228859
130 1 1 0.0 -32.085433 -12.993949 3.403392
131 1 1 0.0 -32.085433 -12.993949 3.577925
132 1 1 0.0 -32.085433 -12.993949 3.752458
133 1 1 0.0 -32.085433 -12.993949 3.926991
134 1 1 0.0 -32.085433 -12.993949 4.101524
135 1 1 0.0 -32.085433 -12.993949 4.276057
136 1 1 0.0 -32.085433 -12.993949 4.450590
137 1 1 0.0 -32.085433 -12.993949 4.625123
138 1 1 0.0 -32.085433 -12.993949 4.799655
139 1 1 0.0 -32.085433 -12.993949 4.974188
140 1 1 0.0 -32.085433 -12.993949 5.148721
141 1 1 0.0 -32.085433 -12.993949 5.323254
142 1 1 0.0 -32.085433 -12.993949 5.497787
143 1 1 0.0 -32.085433 -12.993949 5.672320
144 1 1 0.0 -32.085433 -12.993949 5.846853
145 1 1 0.0 -32.085433 -12.993949 6.021386
146 1 1 0.0 -32.085433 -12.993949 6.195919
147 1 1 0.0 -33.400852 -11.426173 0.000000
148 1 1 0.0 -33.400852 -11.426173 0.174533
149 1 1 0.0 -33.400852 -11.426173 0.349066
150 1 1 0.0 -33.400852 -11.426173 0.523599
151 1 1 0.0 -33.400852 -11.426173 0.698132
152 1 1 0.0 -33.400852 -11.426173 0.872665
153 1 1 0.0 -33.400852 -11.426173 1.047198
154 1 1 0.0 -33.400852 -11.426173 1.221730
155 1 1 0.0 -33.400852 -11.426173 1.396263
156 1 1 0.0 -33.400852 -11.426173 1.570796
157 1 1 0.0 -33.400852 -11.426173 1.745329
158 1 1 0.0 -33.400852 -11.426173 1.919862
159 1 1 0.0 -33.400852 -11.426173 2.094395
160 1 1 0.0 -33.400852 -11.426173 2.268928
161 1 1 0.0 -33.400852 -11.426173 2.443461
162 1 1 0.0 -33.400852 -11.426173 2.617994
163 1 1 0.0 -33.400852 -11.426173 2.792527
164 1 1 0.0 -33.400852 -11.426173 2.967060
165 1 1 0.0 -33.400852 -11.426173 3.141593
166 1 1 0.0 -33.400852 -11.426173 3.316126
167 1 1 0.0 -33.400852 -11.426173 3.490659
168 1 1 0.0 -33.400852 -11.426173 3.665191
169 1 1 0.0 -33.400852 -11.426173 3.839724
170 1 1 0.0 -33.400852 -11.426173 4.014257
171 1 1 0.0 -33.400852 -11.426173 4.188790
172 1 1 0.0 -33.400852 -11.426173 4.363323
173 1 1 0.0 -33.400852 -11.426173 4.537856
174 1 1 0.0 -33.400852 -11.426173 4.712389
175 1 1 0.0 -33.400852 -11.426173 4.886922
176 1 1 0.0 -33.400852 -11.426173 5.061455
177 1 1 0.0 -33.400852 -11.426173 5.235988
178 1 1 0.0 -33.400852 -11.426173 5.410521
179 1 1 0.0 -33.400852 -11.426173 5.585054
180 1 1 0.0 -33.400852 -11.426173 5.759587
181 1 1 0.0 -33.400852 -11.426173 5.934119
182 1 1 0.0 -33.400852 -11.426173 6.108652
183 1 1 0.0 -33.400852 -11.426173 6.283185
184 1 1 0.0 -34.506494 -9.858397 0.087266
185 1 1 0.0 -34.506494 -9.858397 0.261799
186 1 1 0.0 -34.506494 -9.858397 0.436332
187 1 1 0.0 -34.506494 -9.858397 0.610865
188 1 1 0.0 -34.506494 -9.858397 0.785398
189 1 1 0.0 -34.506494 -9.858397 0.959931
190 1 1 0.0 -34.506494 -9.858397 1.134464
191 1 1 0.0 -34.506494 -9.858397 1.308997
192 1 1 0.0 -34.506494 -9.858397 1.483530
193 1 1 0.0 -34.506494 -9.858397 1.658063
194 1 1 0.0 -34.506494 -9.858397 1.832596
195 1 1 0.0 -34.506494 -9.858397 2.007129
196 1 1 0.0 -34.506494 -9.858397 2.181662
197 1 1 0.0 -34.506494 -9.858397 2.356194
198 1 1 0.0 -34.506494 -9.858397 2.530727
199 1 1 0.0 -34.506494 -9.858397 2.705260
200 1 1 0.0 -34.506494 -9.858397 2.879793
201 1 1 0.0 -34.506494 -9.858397 3.054326
202 1 1 0.0 -34.506494 -9.858397 3.228859
203 1 1 0.0 -34.506494 -9.858397 3.403392
204 1 1 0.0 -34.506494 -9.858397 3.577925
205 1 1 0.0 -34.506494 -9.858397 3.752458
206 1 1 0.0 -34.506494 -9.858397 3.926991
207 1 1 0.0 -34.506494 -9.858397 4.101524
208 1 1 0.0 -34.506494 -9.858397 4.276057
209 1 1 0.0 -34.506494 -9.858397 4.450590
210 1 1 0.0 -34.506494 -9.858397 4.625123
211 1 1 0.0 -34.506494 -9.858397 4.799655
212 1 1 0.0 -34.506494 -9.858397 4.974188
213 1 1 0.0 -34.506494 -9.858397 5.148721
214 1 1 0.0 -34.506494 -9.858397 5.323254
215 1 1 0.0 -34.506494 -9.858397 5.497787
216 1 1 0.0 -34.506494 -9.858397 5.672320
217 1 1 0.0 -34.506494 -9.858397 5.846853
218 1 1 0.0 -34.506494 -9.858397 6.021386
219 1 1 0.0 -34.506494 -9.858397 6.195919
220 1 1 0.0 -35.422009 -8.290621 0.000000
221 1 1 0.0 -35.422009 -8.290621 0.174533
222 1 1 0.0 -35.422009 -8.290621 0.349066
223 1 1 0.0 -35.422009 -8.290621 0.523599
224 1 1 0.0 -35.422009 -8.290621 0.698132
225 1 1 0.0 -35.422009 -8.290621 0.872665
226 1 1 0.0 -35.422009 -8.290621 1.047198
227 1 1 0.0 -35.422009 -8.290621 1.221730
228 1 1 0.0 -35.422009 -8.290621 1.396263
229 1 1 0.0 -35.422009 -8.290621 1.570796
230 1 1 0.0 -35.422009 -8.290621 1.745329
231 1 1 0.0 -35.422009 -8.290621 1.919862
232 1 1 0.0 -35.422009 -8.290621 2.094395
233 1 1 0.0 -35.422009 -8.290621 2.268928
234 1 1 0.0 -35.422009 -8.290621 2.443461
235 1 1 0.0 -35.422009 -8.290621 2.617994
236 1 1 0.0 -35.422009 -8.290621 2.792527
237 1 1 0.0 -35.422009 -8.290621 2.967060
238 1 1 0.0 -35.422009 -8.290621 3.141593
239 1 1 0.0 -35.422009 -8.290621 3.316126
240 1 1 0.0 -35.422009 -8.290621 3.490659
241 1 1 0.0 -35.422009 -8.290621 3.665191
242 1 1 0.0 -35.422009 -8.290621 3.839724
243 1 1 0.0 -35.422009 -8.290621 4.014257
244 1 1 0.0 -35.422009 -8.290621 4.188790
245 1 1 0.0 -35.422009 -8.290621 4.363323
246 1 1 0.0 -35.422009 -8.290621 4.537856
247 1 1 0.0 -35.422009 -8.290621 4.712389
248 1 1 0.0 -35.422009 -8.290621 4.886922
249 1 1 0.0 -35.422009 -8.290621 5.061455
250 1 1 0.0 -35.422009 -8.290621 5.235988
251 1 1 0.0 -35.422009 -8.290621 5.410521
252 1 1 0.0 -35.422009 -8.290621 5.585054
253 1 1 0.0 -35.422009 -8.290621 5.759587
254 1 1 0.0 -35.422009 -8.290621 5.934119
255 1 1 0.0 -35.422009 -8.290621 6.108652
256 1 1 0.0 -35.422009 -8.290621 6.283185
257 1 1 0.0 -36.161840 -6.722846 0.087266
258 1 1 0.0 -36.161840 -6.722846 0.261799
259 1 1 0.0 -36.161840 -6.722846 0.436332
260 1 1 0.0 -36.161840 -6.722846 0.610865
261 1 1 0.0 -36.161840 -6.722846 0.785398
262 1 1 0.0 -36.161840 -6.722846 0.959931
263 1 1 0.0 -36.161840 -6.722846 1.134464
264 1 1 0.0 -36.161840 -6.722846 1.308997
265 1 1 0.0 -36.161840 -6.722846 1.483530
266 1 1 0.0 -36.161840 -6.722846 1.658063
267 1 1 0.0 -36.161840 -6.722846 1.832596
268 1 1 0.0 -36.161840 -6.722846 2.007129
269 1 1 0.0 -36.161840 -6.722846 2.181662
270 1 1 0.0 -36.161840 -6.722846 2.356194
271 1 1 0.0 -36.161840 -6.722846 2.530727
272 1 1 0.0 -36.161840 -6.722846 2.705260
273 1 1 0.0 -36.161840 -6.722846 2.879793
274 1 1 0.0 -36.161840 -6.722846 3.054326
275 1 1 0.0 -36.161840 -6.722846 3.228859
276 1 1 0.0 -36.161840 -6.722846 3.403392
277 1 1 0.0 -36.161840 -6.722846 3.577925
278 1 1 0.0 -36.161840 -6.722846 3.752458
279 1 1 0.0 -36.161840 -6.722846 3.926991
280 1 1 0.0 -36.161840 -6.722846 4.101524
281 1 1 0.0 -36.161840 -6.722846 4.276057
282 1 1 0.0 -36.161840 -6.722846 4.450590
283 1 1 0.0 -36.161840 -6.722846 4.625123
284 1 1 0.0 -36.161840 -6.722846 4.799655
285 1 1 0.0 -36.161840 -6.722846 4.974188
286 1 1 0.0 -36.161840 -6.722846 5.148721
287 1 1 0.0 -36.161840 -6.722846 5.323254
288 1 1 0.0 -36.161840 -6.722846 5.497787
289 1 1 0.0 -36.161840 -6.722846 5.672320
290 1 1 0.0 -36.161840 -6.722846 5.846853
291 1 1 0.0 -36.161840 -6.722846 6.021386
292 1 1 0.0 -36.161840 -6.722846 6.195919
293 1 1 0.0 -36.736602 -5.155070 0.000000
294 1 1 0.0 -36.736602 -5.155070 0.174533
295 1 1 0.0 -36.736602 -5.155070 0.349066
296 1 1 0.0 -36.736602 -5.155070 0.523599
297 1 1 0.0 -36.736602 -5.155070 0.698132
298 1 1 0.0 -36.736602 -5.155070 0.872665
299 1 1 0.0 -36.736602 -5.155070 1.047198
300 1 1 0.0 -36.736602 -5.155070 1.221730
301 1 1 0.0 -36.736602 -5.155070 1.396263
302 1 1 0.0 -36.736602 -5.155070 1.570796
303 1 1 0.0 -36.736602 -5.155070 1.745329
304 1 1 0.0 -36.736602 -5.155070 1.919862
305 1 1 0.0 -36.736602 -5.155070 2.094395
306 1 1 0.0 -36.736602 -5.155070 2.268928
307 1 1 0.0 -36.736602 -5.155070 2.443461
308 1 1 0.0 -36.736602 -5.155070 2.617994
309 1 1 0.0 -36.736602 -5.155070 2.792527
310 1 1 0.0 -36.736602 -5.155070 2.967060
311 1 1 0.0 -36.736602 -5.155070 3.141593
312 1 1 0.0 -36.736602 -5.155070 3.316126
313 1 1 0.0 -36.736602 -5.155070 3.490659
314 1 1 0.0 -36.736602 -5.155070 3.665191
315 1 1 0.0 -36.736602 -5.155070 3.839724
316 1 1 0.0 -36.736602 -5.155070 4.014257
317 1 1 0.0 -36.736602 -5.155070 4.188790
318 1 1 0.0 -36.736602 -5.155070 4.363323
319 1 1 0.0 -36.736602 -5.155070 4.537856
320 1 1 0.0 -36.736602 -5.155070 4.712389
321 1 1 0.0 -36.736602 -5.155070 4.886922
322 1 1 0.0 -36.736602 -5.155070 5.061455
323 1 1 0.0 -36.736602 -5.155070 5.235988
324 1 1 0.0 -36.736602 -5.155070 5.410521
325 1 1 0.0 -36.736602 -5.155070 5.585054
326 1 1 0.0 -36.736602 -5.155070 5.759587
327 1 1 0.0 -36.736602 -5.155070 5.934119
328 1 1 0.0 -36.736602 -5.155070 6.108652
329 1 1 0.0 -36.736602 -5.155070 6.283185
330 1 1 0.0 -37.153958 -3.587294 0.087266
331 1 1 0.0 -37.153958 -3.587294 0.261799
332 1 1 0.0 -37.153958 -3.587294 0.436332
333 1 1 0.0 -37.153958 -3.587294 0.610865
334 1 1 0.0 -37.153958 -3.587294 0.785398
335 1 1 0.0 -37.153958 -3.587294 0.959931
336 1 1 0.0 -37.153958 -3.587294 1.134464
337 1 1 0.0 -37.153958 -3.587294 1.308997
338 1 1 0.0 -37.153958 -3.587294 1.483530
339 1 1 0.0 -37.153958 -3.587294 1.658063
340 1 1 0.0 -37.153958 -3.587294 1.832596
341 1 1 0.0 -37.153958 -3.587294 2.007129
342 1 1 0.0 -37.153958 -3.587294 2.181662
343 1 1 0.0 -37.153958 -3.587294 2.356194
344 1 1 0.0 -37.153958 -3.587294 2.530727
345 1 1 0.0 -37.153958 -3.587294 2.705260
346 1 1 0.0 -37.153958 -3.587294 2.879793
347 1 1 0.0 -37.153958 -3.587294 3.054326
348 1 1 0.0 -37.153958 -3.587294 3.228859
349 1 1 0.0 -37.153958 -3.587294 3.403392
350 1 1 0.0 -37.153958 -3.587294 3.577925
351 1 1 0.0 -37.153958 -3.587294 3.752458
352 1 1 0.0 -37.153958 -3.587294 3.926991
353 1 1 0.0 -37.153958 -3.587294 4.101524
354 1 1 0.0 -37.153958 -3.587294 4.276057
355 1 1 0.0 -37.153958 -3.587294 4.450590
356 1 1 0.0 -37.153958 -3.587294 4.625123
357 1 1 0.0 -37.153958 -3.587294 4.799655
358 1 1 0.0 -37.153958 -3.587294 4.974188
359 1 1 0.0 -37.153958 -3.587294 5.148721
360 1 1 0.0 -37.153958 -3.587294 5.323254
361 1 1 0.0 -37.153958 -3.587294 5.497787
362 1 1 0.0 -37.153958 -3.587294 5.672320
363 1 1 0.0 -37.153958 -3.587294 5.846853
364 1 1 0.0 -37.153958 -3.587294 6.021386
365 1 1 0.0 -37.153958 -3.587294 6.195919
366 1 1 0.0 -37.419174 -2.019518 0.000000
367 1 1 0.0 -37.419174 -2.019518 0.174533
368 1 1 0.0 -37.419174 -2.019518 0.349066
369 1 1 0.0 -37.419174 -2.019518 0.523599
370 1 1 0.0 -37.419174 -2.019518 0.698132
371 1 1 0.0 -37.419174 -2.019518 0.872665
372 1 1 0.0 -37.419174 -2.019518 1.047198
373 1 1 0.0 -37.419174 -2.019518 1.221730
374 1 1 0.0 -37.419174 -2.019518 1.396263
375 1 1 0.0 -37.419174 -2.019518 1.570796
376 1 1 0.0 -37.419174 -2.019518 1.745329
377 1 1 0.0 -37.419174 -2.019518 1.919862
378 1 1 0.0 -37.419174 -2.019518 2.094395
379 1 1 0.0 -37.419174 -2.019518 2.268928
380 1 1 0.0 -37.419174 -2.019518 2.443461
381 1 1 0.0 -37.419174 -2.019518 2.617994
382 1 1 0.0 -37.419174 -2.019518 2.792527
383 1 1 0.0 -37.419174 -2.019518 2.967060
384 1 1 0.0 -37.419174 -2.019518 3.141593
385 1 1 0.0 -37.419174 -2.019518 3.316126
386 1 1 0.0 -37.419174 -2.019518 3.490659
387 1 1 0.0 -37.419174 -2.019518 3.665191
388 1 1 0.0 -37.419174 -2.019518 3.839724
389 1 1 0.0 -37.419174 -2.019518 4.014257
390 1 1 0.0 -37.419174 -2.019518 4.188790
391 1 1 0.0 -37.419174 -2.019518 4.363323
392 1 1 0.0 -37.419174 -2.019518 4.537856
393 1 1 0.0 -37.419174 -2.019518 4.712389
394 1 1 0.0 -37.419174 -2.019518 4.886922
395 1 1 0.0 -37.419174 -2.019518 5.061455
396 1 1 0.0 -37.419174 -2.019518 5.235988
397 1 1 0.0 -37.419174 -2.019518 5.410521
398 1 1 0.0 -37.419174 -2.019518 5.585054
399 1 1 0.0 -37.419174 -2.019518 5.759587
400 1 1 0.0 -37.419174 -2.019518 5.934119
401 1 1 0.0 -37.419174 -2.019518 6.108652
402 1 1 0.0 -37.419174 -2.019518 6.283185
403 1 1 0.0 -37.535476 -0.451743 0.087266
404 1 1 0.0 -37.535476 -0.451743 0.261799
405 1 1 0.0 -37.535476 -0.451743 0.436332
406 1 1 0.0 -37.535476 -0.451743 0.610865
407 1 1 0.0 -37.535476 -0.451743 0.785398
408 1 1 0.0 -37.535476 -0.451743 0.959931
409 1 1 0.0 -37.535476 -0.451743 1.134464
410 1 1 0.0 -37.535476 -0.451743 1.308997
411 1 1 0.0 -37.535476 -0.451743 1.483530
412 1 1 0.0 -37.535476 -0.451743 1.658063
413 1 1 0.0 -37.535476 -0.451743 1.832596
414 1 1 0.0 -37.535476 -0.451743 2.007129
415 1 1 0.0 -37.535476 -0.451743 2.181662
416 1 1 0.0 -37.535476 -0.451743 2.356194
417 1 1 0.0 -37.535476 -0.451743 2.530727
418 1 1 0.0 -37.535476 -0.451743 2.705260
419 1 1 0.0 -37.535476 -0.451743 2.879793
420 1 1 0.0 -37.535476 -0.451743 3.054326
421 1 1 0.0 -37.535476 -0.451743 3.228859
422 1 1 0.0 -37.535476 -0.451743 3.403392
423 1 1 0.0 -37.535476 -0.451743 3.577925
424 1 1 0.0 -37.535476 -0.451743 3.752458
425 1 1 0.0 -37.535476 -0.451743 3.926991
426 1 1 0.0 -37.535476 -0.451743 4.101524
427 1 1 0.0 -37.535476 -0.451743 4.276057
428 1 1 0.0 -37.535476 -0.451743 4.450590
429 1 1 0.0 -37.535476 -0.451743 4.625123
430 1 1 0.0 -37.535476 -0.451743 4.799655
431 1 1 0.0 -37.535476 -0.451743 4.974188
432 1 1 0.0 -37.535476 -0.451743 5.148721
433 1 1 0.0 -37.535476 -0.451743 5.323254
434 1 1 0.0 -37.535476 -0.451743 5.497787
435 1 1 0.0 -37.535476 -0.451743 5.672320
436 1 1 0.0 -37.535476 -0.451743 5.846853
437 1 1 0.0 -37.535476 -0.451743 6.021386
438 1 1 0.0 -37.535476 -0.451743 6.195919
439 1 1 0.0 -37.504249 1.116033 0.000000
440 1 1 0.0 -37.504249 1.116033 0.174533
441 1 1 0.0 -37.504249 1.116033 0.349066
442 1 1 0.0 -37.504249 1.116033 0.523599
443 1 1 0.0 -37.504249 1.116033 0.698132
444 1 1 0.0 -37.504249 1.116033 0.872665
445 1 1 0.0 -37.504249 1.116033 1.047198
446 1 1 0.0 -37.504249 1.116033 1.221730
447 1 1 0.0 -37.504249 1.116033 1.396263
448 1 1 0.0 -37.504249 1.116033 1.570796
449 1 1 0.0 -37.504249 1.116033 1.745329
450 1 1 0.0 -37.504249 1.116033 1.919862
451 1 1 0.0 -37.504249 1.116033 2.094395
452 1 1 0.0 -37.504249 1.116033 2.268928
453 1 1 0.0 -37.504249 1.116033 2.443461
454 1 1 0.0 -37.504249 1.116033 2.617994
455 1 1 0.0 -37.504249 1.116033 2.792527
456 1 1 0.0 -37.504249 1.116033 2.967060
457 1 1 0.0 -37.504249 1.116033 3.141593
458 1 1 0.0 -37.504249 1.116033 3.316126
459 1 1 0.0 -37.504249 1.116033 3.490659
460 1 1 0.0 -37.504249 1.116033 3.665191
461 1 1 0.0 -37.504249 1.116033 3.839724
462 1 1 0.0 -37.504249 1.116033 4.014257
463 1 1 0.0 -37.504249 1.116033 4.188790
464 1 1 0.0 -37.504249 1.116033 4.363323
465 1 1 0.0 -37.504249 1.116033 4.537856
466 1 1 0.0 -37.504249 1.116033 4.712389
467 1 1 0.0 -37.504249 1.116033 4.886922
468 1 1 0.0 -37.504249 1.116033 5.061455
469 1 1 0.0 -37.504249 1.116033 5.235988
470 1 1 0.0 -37.504249 1.116033 5.410521
471 1 1 0.0 -37.504249 1.116033 5.585054
472 1 1 0.0 -37.504249 1.116033 5.759587
473 1 1 0.0 -37.504249 1.116033 5.934119
474 1 1 0.0 -37.504249 1.116033 6.108652
475 1 1 0.0 -37.504249 1.116033 6.283185
476 1 1 0.0 -37.325122 2.683809 0.087266
477 1 1 0.0 -37.325122 2.683809 0.261799
478 1 1 0.0 -37.325122 2.683809 0.436332
479 1 1 0.0 -37.325122 2.683809 0.610865
480 1 1 0.0 -37.325122 2.683809 0.785398
481 1 1 0.0 -37.325122 2.683809 0.959931
482 1 1 0.0 -37.325122 2.683809 1.134464
483 1 1 0.0 -37.325122 2.683809 1.308997
484 1 1 0.0 -37.325122 2.683809 1.483530
485 1 1 0.0 -37.325122 2.683809 1.658063
486 1 1 0.0 -37.325122 2.683809 1.832596
487 1 1 0.0 -37.325122 2.683809 2.007129
488 1 1 0.0 -37.325122 2.683809 2.181662
489 1 1 0.0 -37.325122 2.683809 2.356194
490 1 1 0.0 -37.325122 2.683809 2.530727
491 1 1 0.0 -37.325122 2.683809 2.705260
492 1 1 0.0 -37.325122 2.683809 2.879793
493 1 1 0.0 -37.325122 2.683809 3.054326
494 1 1 0.0 -37.325122 2.683809 3.228859
495 1 1 0.0 -37.325122 2.683809 3.403392
496 1 1 0.0 -37.325122 2.683809 3.577925
497 1 1 0.0 -37.325122 2.683809 3.752458
498 1 1 0.0 -37.325122 2.683809 3.926991
499 1 1 0.0 -37.325122 2.683809 4.101524
500 1 1 0.0 -37.325122 2.683809 4.276057
501 1 1 0.0 -37.325122 2.683809 4.450590
502 1 1 0.0 -37.325122 2.683809 4.625123
503 1 1 0.0 -37.325122 2.683809 4.799655
504 1 1 0.0 -37.325122 2.683809 4.974188
505 1 1 0.0 -37.325122 2.683809 5.148721
506 1 1 0.0 -37.325122 2.683809 5.323254
507 1 1 0.0 -37.325122 2.683809 5.497787
508 1 1 0.0 -37.325122 2.683809 5.672320
509 1 1 0.0 -37.325122 2.683809 5.846853
510 1 1 0.0 -37.325122 2.683809 6.021386
511 1 1 0.0 -37.325122 2.683809 6.195919
512 1 1 0.0 -36.995948 4.251585 0.000000
513 1 1 0.0 -36.995948 4.251585 0.174533
514 1 1 0.0 -36.995948 4.251585 0.349066
515 1 1 0.0 -36.995948 4.251585 0.523599
516 1 1 0.0 -36.995948 4.251585 0.698132
517 1 1 0.0 -36.995948 4.251585 0.872665
518 1 1 0.0 -36.995948 4.251585 1.047198
519 1 1 0.0 -36.995948 4.251585 1.221730
520 1 1 0.0 -36.995948 4.251585 1.396263
521 1 1 0.0 -36.995948 4.251585 1.570796
522 1 1 0.0 -36.995948 4.251585 1.745329
523 1 1 0.0 -36.995948 4.251585 1.919862
524 1 1 0.0 -36.995948 4.251585 2.094395
525 1 1 0.0 -36.995948 4.251585 2.268928
526 1 1 0.0 -36.995948 4.251585 2.443461
527 1 1 0.0 -36.995948 4.251585 2.617994
528 1 1 0.0 -36.995948 4.251585 2.792527
529 1 1 0.0 -36.995948 4.251585 2.967060
530 1 1 0.0 -36.995948 4.251585 3.141593
531 1 1 0.0 -36.995948 4.251585 3.316126
532 1 1 0.0 -36.995948 4.251585 3.490659
533 1 1 0.0 -36.995948 4.251585 3.665191
534 1 1 0.0 -36.995948 4.251585 3.839724
535 1 1 0.0 -36.995948 4.251585 4.014257
536 1 1 0.0 -36.995948 4.251585 4.188790
537 1 1 0.0 -36.995948 4.251585 4.363323
538 1 1 0.0 -36.995948 4.251585 4.537856
539 1 1 0.0 -36.995948 4.251585 4.712389
540 1 1 0.0 -36.995948 4.251585 4.886922
541 1 1 0.0 -36.995948 4.251585 5.061455
542 1 1 0.0 -36.995948 4.251585 5.235988
543 1 1 0.0 -36.995948 4.251585 5.410521
544 1 1 0.0 -36.995948 4.251585 5.585054
545 1 1 0.0 -36.995948 4.251585 5.759587
546 1 1 0.0 -36.995948 4.251585 5.934119
547 1 1 0.0 -36.995948 4.251585 6.108652
548 1 1 0.0 -36.995948 4.251585 6.283185
549 1 1 0.0 -36.512669 5.819361 0.087266
550 1 1 0.0 -36.512669 5.819361 0.261799
551 1 1 0.0 -36.512669 5.819361 0.436332
552 1 1 0.0 -36.512669 5.819361 0.610865
553 1 1 0.0 -36.512669 5.819361 0.785398
554 1 1 0.0 -36.512669 5.819361 0.959931
555 1 1 0.0 -36.512669 5.819361 1.134464
556 1 1 0.0 -36.512669 5.819361 1.308997
557 1 1 0.0 -36.512669 5.819361 1.483530
558 1 1 0.0 -36.512669 5.819361 1.658063
559 1 1 0.0 -36.512669 5.819361 1.832596
560 1 1 0.0 -36.512669 5.819361 2.007129
561 1 1 0.0 -36.512669 5.819361 2.181662
562 1 1 0.0 -36.512669 5.819361 2.356194
563 1 1 0.0 -36.512669 5.819361 2.530727
564 1 1 0.0 -36.512669 5.819361 2.705260
565 1 1 0.0 -36.512669 5.819361 2.879793
566 1 1 0.0 -36.512669 5.819361 3.054326
567 1 1 0.0 -36.512669 5.819361 3.228859
568 1 1 0.0 -36.512669 5.819361 3.403392
569 1 1 0.0 -36.512669 5.819361 3.577925
570 1 1 0.0 -36.512669 5.819361 3.752458
571 1 1 0.0 -36.512669 5.819361 3.926991
572 1 1 0.0 -36.512669 5.819361 4.101524
573 1 1 0.0 -36.512669 5.819361 4.276057
574 1 1 0.0 -36.512669 5.819361 4.450590
575 1 1 0.0 -36.512669 5.819361 4.625123
576 1 1 0.0 -36.512669 5.819361 4.799655
577 1 1 0.0 -36.512669 5.819361 4.974188
578 1 1 0.0 -36.512669 5.819361 5.148721
579 1 1 0.0 -36.512669 5.819361 5.323254
580 1 1 0.0 -36.512669 5.819361 5.497787
581 1 1 0.0 -36.512669 5.819361 5.672320
582 1 1 0.0 -36.512669 5.819361 5.846853
583 1 1 0.0 -36.512669 5.819361 6.021386
584 1 1 0.0 -36.512669 5.819361 6.195919
585 1 1 0.0 -35.869055 7.387136 0.000000
586 1 1 0.0 -35.869055 7.387136 0.174533
587 1 1 0.0 -35.869055 7.387136 0.349066
588 1 1 0.0 -35.869055 7.387136 0.523599
589 1 1 0.0 -35.869055 7.387136 0.698132
590 1 1 0.0 -35.869055 7.387136 0.872665
591 1 1 0.0 -35.869055 7.387136 1.047198
592 1 1 0.0 -35.869055 7.387136 1.221730
593 1 1 0.0 -35.869055 7.387136 1.396263
594 1 1 0.0 -35.869055 7.387136 1.570796
595 1 1 0.0 -35.869055 7.387136 1.745329
596 1 1 0.0 -35.869055 7.387136 1.919862
597 1 1 0.0 -35.869055 7.387136 2.094395
598 1 1 0.0 -35.869055 7.387136 2.268928
599 1 1 0.0 -35.869055 7.387136 2.443461
600 1 1 0.0 -35.869055 7.387136 2.617994
601 1 1 0.0 -35.869055 7.387136 2.792527
602 1 1 0.0 -35.869055 7.387136 2.967060
603 1 1 0.0 -35.869055 7.387136 3.141593
604 1 1 0.0 -35.869055 7.387136 3.316126
605 1 1 0.0 -35.869055 7.387136 3.490659
606 1 1 0.0 -35.869055 7.387136 3.665191
607 1 1 0.0 -35.869055 7.387136 3.839724
608 1 1 0.0 -35.869055 7.387136 4.014257
609 1 1 0.0 -35.869055 7.387136 4.188790
610 1 1 0.0 -35.869055 7.387136 4.363323
611 1 1 0.0 -35.869055 7.387136 4.537856
612 1 1 0.0 -35.869055 7.387136 4.712389
613 1 1 0.0 -35.869055 7.387136 4.886922
614 1 1 0.0 -35.869055 7.387136 5.061455
615 1 1 0.0 -35.869055 7.387136 5.235988
616 1 1 0.0 -35.869055 7.387136 5.410521
617 1 1 0.0 -35.869055 7.387136 5.585054
618 1 1 0.0 -35.869055 7.387136 5.759587
619 1 1 0.0 -35.869055 7.387136 5.934119
620 1 1 0.0 -35.869055 7.387136 6.108652
621 1 1 0.0 -35.869055 7.387136 6.283185
622 1 1 0.0 -35.056278 8.954912 0.087266
623 1 1 0.0 -35.056278 8.954912 0.261799
624 1 1 0.0 -35.056278 8.954912 0.436332
625 1 1 0.0 -35.056278 8.954912 0.610865
626 1 1 0.0 -35.056278 8.954912 0.785398
627 1 1 0.0 -35.056278 8.954912 0.959931
628 1 1 0.0 -35.056278 8.954912 1.134464
629 1 1 0.0 -35.056278 8.954912 1.308997
630 1 1 0.0 -35.056278 8.954912 1.483530
631 1 1 0.0 -35.056278 8.954912 1.658063
632 1 1 0.0 -35.056278 8.954912 1.832596
633 1 1 0.0 -35.056278 8.954912 2.007129
634 1 1 0.0 -35.056278 8.954912 2.181662
635 1 1 0.0 -35.056278 8.954912 2.356194
636 1 1 0.0 -35.056278 8.954912 2.530727
637 1 1 0.0 -35.056278 8.954912 2.705260
638 1 1 0.0 -35.056278 8.954912 2.879793
639 1 1 0.0 -35.056278 8.954912 3.054326
640 1 1 0.0 -35.056278 8.954912 3.228859
641 1 1 0.0 -35.056278 8.954912 3.403392
642 1 1 0.0 -35.056278 8.954912 3.577925
643 1 1 0.0 -35.056278 8.954912 3.752458
644 1 1 0.0 -35.056278 8.954912 3.926991
645 1 1 0.0 -35.056278 8.954912 4.101524
646 1 1 0.0 -35.056278 8.954912 4.276057
647 1 1 0.0 -35.056278 8.954912 4.450590
648 1 1 0.0 -35.056278 8.954912 4.625123
649 1 1 0.0 -35.056278 8.954912 4.799655
650 1 1 0.0 -35.056278 8.954912 4.974188
651 1 1 0.0 -35.056278 8.954912 5.148721
652 1 1 0.0 -35.056278 8.954912 5.323254
653 1 1 0.0 -35.056278 8.954912 5.497787
654 1 1 0.0 -35.056278 8.954912 5.672320
655 1 1 0.0 -35.056278 8.954912 5.846853
656 1 1 0.0 -35.056278 8.954912 6.021386
657 1 1 0.0 -35.056278 8.954912 6.195919
658 1 1 0.0 -34.062229 10.522688 0.000000
659 1 1 0.0 -34.062229 10.522688 0.174533
660 1 1 0.0 -34.062229 10.522688 0.349066
661 1 1 0.0 -34.062229 10.522688 0.523599
662 1 1 0.0 -34.062229 10.522688 0.698132
663 1 1 0.0 -34.062229 10.522688 0.872665
664 1 1 0.0 -34.062229 10.522688 1.047198
665 1 1 0.0 -34.062229 10.522688 1.221730
666 1 1 0.0 -34.062229 10.522688 1.396263
667 1 1 0.0 -34.062229 10.522688 1.570796
668 1 1 0.0 -34.062229 10.522688 1.745329
669 1 1 0.0 -34.062229 10.522688 1.919862
670 1 1 0.0 -34.062229 10.522688 2.094395
671 1 1 0.0 -34.062229 10.522688 2.268928
672 1 1 0.0 -34.062229 10.522688 2.443461
673 1 1 0.0 -34.062229 10.522688 2.617994
674 1 1 0.0 -34.062229 10.522688 2.792527
675 1 1 0.0 -34.062229 10.522688 2.967060
676 1 1 0.0 -34.062229 10.522688 3.141593
677 1 1 0.0 -34.062229 10.522688 3.316126
678 1 1 0.0 -34.062229 10.522688 3.490659
679 1 1 0.0 -34.062229 10.522688 3.665191
680 1 1 0.0 -34.062229 10.522688 3.839724
681 1 1 0.0 -34.062229 10.522688 4.014257
682 1 1 0.0 -34.062229 10.522688 4.188790
683 1 1 0.0 -34.062229 10.522688 4.363323
684 1 1 0.0 -34.062229 10.522688 4.537856
685 1 1 0.0 -34.062229 10.522688 4.712389
686 1 1 0.0 -34.062229 10.522688 4.886922
687 1 1 0.0 -34.062229 10.522688 5.061455
688 1 1 0.0 -34.062229 10.522688 5.235988
689 1 1 0.0 -34.062229 10.522688 5.410521
690 1 1 0.0 -34.062229 10.522688 5.585054
691 1 1 0.0 -34.062229 10.522688 5.759587
692 1 1 0.0 -34.062229 10.522688 5.934119
693 1 1 0.0 -34.062229 10.522688 6.108652
694 1 1 0.0 -34.062229 10.522688 6.283185
695 1 1 0.0 -32.870468 12.090464 0.087266
696 1 1 0.0 -32.870468 12.090464 0.261799
697 1 1 0.0 -32.870468 12.090464 0.436332
698 1 1 0.0 -32.870468 12.090464 0.610865
699 1 1 0.0 -32.870468 12.090464 0.785398
700 1 1 0.0 -32.870468 12.090464 0.959931
701 1 1 0.0 -32.870468 12.090464 1.134464
702 1 1 0.0 -32.870468 12.090464 1.308997
703 1 1 0.0 -32.870468 12.090464 1.483530
704 1 1 0.0 -32.870468 12.090464 1.658063
705 1 1 0.0 -32.870468 12.090464 1.832596
706 1 1 0.0 -32.870468 12.090464 2.007129
707 1 1 0.0 -32.870468 12.090464 2.181662
708 1 1 0.0 -32.870468 12.090464 2.356194
709 1 1 0.0 -32.870468 12.090464 2.530727
710 1 1 0.0 -32.870468 12.090464 2.705260
711 1 1 0.0 -32.870468 12.090464 2.879793
712 1 1 0.0 -32.870468 12.090464 3.054326
713 1 1 0.0 -32.870468 12.090464 3.228859
714 1 1 0.0 -32.870468 12.090464 3.403392