33763
timestep 0 4.171288 4.171288 4.171288
Au -26.545914 -17.697276 0.000000
Au -26.545914 -17.697276 0.174533
Au -26.545914 -17.697276 0.349066
Au -26.545914 -17.697276 0.523599
Au -26.545914 -17.697276 0.698132
Au -26.545914 -17.697276 0.872665
Au -26.545914 -17.697276 1.047198
Au -26.545914 -17.697276 1.221730
Au -26.545914 -17.697276 1.396263
Au -26.545914 -17.697276 1.570796
Au -26.545914 -17.697276 1.745329
Au -26.545914 -17.697276 1.919862
Au -26.545914 -17.697276 2.094395
Au -26.545914 -17.697276 2.268928
Au -26.545914 -17.697276 2.443461
Au -26.545914 -17.697276 2.617994
Au -26.545914 -17.697276 2.792527
Au -26.545914 -17.697276 2.967060
Au -26.545914 -17.697276 3.141593
Au -26.545914 -17.697276 3.316126
Au -26.545914 -17.697276 3.490659
Au -26.545914 -17.697276 3.665191
Au -26.545914 -17.697276 3.839724
Au -26.545914 -17.697276 4.014257
Au -26.545914 -17.697276 4.188790
Au -26.545914 -17.697276 4.363323
Au -26.545914 -17.697276 4.537856
Au -26.545914 -17.697276 4.712389
Au -26.545914 -17.697276 4.886922
Au -26.545914 -17.697276 5.061455
Au -26.545914 -17.697276 5.235988
Au -26.545914 -17.697276 5.410521
Au -26.545914 -17.697276 5.585054
Au -26.545914 -17.697276 5.759587
Au -26.545914 -17.697276 5.934119
Au -26.545914 -17.697276 6.108652
Au -26.545914 -17.697276 6.283185
Au -28.705563 -16.129500 0.087266
Au -28.705563 -16.129500 0.261799
Au -28.705563 -16.129500 0.436332
Au -28.705563 -16.129500 0.610865
Au -28.705563 -16.129500 0.785398
Au -28.705563 -16.129500 0.959931
Au -28.705563 -16.129500 1.134464
Au -28.705563 -16.129500 1.308997
Au -28.705563 -16.129500 1.483530
Au -28.705563 -16.129500 1.658063
Au -28.705563 -16.129500 1.832596
Au -28.705563 -16.129500 2.007129
Au -28.705563 -16.129500 2.181662
Au -28.705563 -16.129500 2.356194
Au -28.705563 -16.129500 2.530727
Au -28.705563 -16.129500 2.705260
Au -28.705563 -16.129500 2.879793
Au -28.705563 -16.129500 3.054326
Au -28.705563 -16.129500 3.228859
Au -28.705563 -16.129500 3.403392
Au -28.705563 -16.129500 3.577925
Au -28.705563 -16.129500 3.752458
Au -28.705563 -16.129500 3.926991
Au -28.705563 -16.129500 4.101524
Au -28.705563 -16.129500 4.276057
Au -28.705563 -16.129500 4.450590
Au -28.705563 -16.129500 4.625123
Au -28.705563 -16.129500 4.799655
Au -28.705563 -16.129500 4.974188
Au -28.705563 -16.129500 5.148721
Au -28.705563 -16.129500 5.323254
Au -28.705563 -16.129500 5.497787
Au -28.705563 -16.129500 5.672320
Au -28.705563 -16.129500 5.846853
Au -28.705563 -16.129500 6.021386
Au -28.705563 -16.129500 6.195919
Au -30.533138 -14.561725 0.000000
Au -30.533138 -14.561725 0.174533
Au -30.533138 -14.561725 0.349066
Au -30.533138 -14.561725 0.523599
Au -30.533138 -14.561725 0.698132
Au -30.533138 -14.561725 0.872665
Au -30.533138 -14.561725 1.047198
Au -30.533138 -14.561725 1.221730
Au -30.533138 -14.561725 1.396263
Au -30.533138 -14.561725 1.570796
Au -30.533138 -14.561725 1.745329
Au -30.533138 -14.561725 1.919862
Au -30.533138 -14.561725 2.094395
Au -30.533138 -14.561725 2.268928
Au -30.533138 -14.561725 2.443461
Au -30.533138 -14.561725 2.617994
Au -30.533138 -14.561725 2.792527
Au -30.533138 -14.561725 2.967060
Au -30.533138 -14.561725 3.141593
Au -30.533138 -14.561725 3.316126
Au -30.533138 -14.561725 3.490659
Au -30.533138 -14.561725 3.665191
Au -30.533138 -14.561725 3.839724
Au -30.533138 -14.561725 4.014257
Au -30.533138 -14.561725 4.188790
Au -30.533138 -14.561725 4.363323
Au -30.533138 -14.561725 4.537856
Au -30.533138 -14.561725 4.712389
Au -30.533138 -14.561725 4.886922
Au -30.533138 -14.561725 5.061455
Au -30.533138 -14.561725 5.235988
Au -30.533138 -14.561725 5.410521
Au -30.533138 -14.561725 5.585054
Au -30.533138 -14.561725 5.759587
Au -30.533138 -14.561725 5.934119
Au -30.533138 -14.561725 6.108652
Au -30.533138 -14.561725 6.283185
Au -32.085433 -12.993949 0.087266
Au -32.085433 -12.993949 0.261799
Au -32.085433 -12.993949 0.436332
Au -32.085433 -12.993949 0.610865
Au -32.085433 -12.993949 0.785398
Au -32.085433 -12.993949 0.959931
Au -32.085433 -12.993949 1.134464
Au -32.085433 -12.993949 1.308997
Au -32.085433 -12.993949 1.483530
Au -32.085433 -12.993949 1.658063
Au -32.085433 -12.993949 1.832596
Au -32.085433 -12.993949 2.007129
Au -32.085433 -12.993949 2.181662
Au -32.085433 -12.993949 2.356194
Au -32.085433 -12.993949 2.530727
Au -32.085433 -12.993949 2.705260
Au -32.085433 -12.993949 2.879793
Au -32.085433 -12.993949 3.054326
Au -32.085433 -12.993949 3.228859
Au -32.085433 -12.993949 3.403392
Au -32.085433 -12.993949 3.577925
Au -32.085433 -12.993949 3.752458
Au -32.085433 -12.993949 3.926991
Au -32.085433 -12.993949 4.101524
Au -32.085433 -12.993949 4.276057
Au -32.085433 -12.993949 4.450590
Au -32.085433 -12.993949 4.625123
Au -32.085433 -12.993949 4.799655
Au -32.085433 -12.993949 4.974188
Au -32.085433 -12.993949 5.148721
Au -32.085433 -12.993949 5.323254
Au -32.085433 -12.993949 5.497787
Au -32.085433 -12.993949 5.672320
Au -32.085433 -12.993949 5.846853
Au -32.085433 -12.993949 6.021386
Au -32.085433 -12.993949 6.195919
Au -33.400852 -11.426173 0.000000
Au -33.400852 -11.426173 0.174533
Au -33.400852 -11.426173 0.349066
Au -33.400852 -11.426173 0.523599
Au -33.400852 -11.426173 0.698132
Au -33.400852 -11.426173 0.872665
Au -33.400852 -11.426173 1.047198
Au -33.400852 -11.426173 1.221730
Au -33.400852 -11.426173 1.396263
Au -33.400852 -11.426173 1.570796
Au -33.400852 -11.426173 1.745329
Au -33.400852 -11.426173 1.919862
Au -33.400852 -11.426173 2.094395
Au -33.400852 -11.426173 2.268928
Au -33.400852 -11.426173 2.443461
Au -33.400852 -11.426173 2.617994
Au -33.400852 -11.426173 2.792527
Au -33.400852 -11.426173 2.967060
Au -33.400852 -11.426173 3.141593
Au -33.400852 -11.426173 3.316126
Au -33.400852 -11.426173 3.490659
Au -33.400852 -11.426173 3.665191
Au -33.400852 -11.426173 3.839724
Au -33.400852 -11.426173 4.014257
Au -33.400852 -11.426173 4.188790
Au -33.400852 -11.426173 4.363323
Au -33.400852 -11.426173 4.537856
Au -33.400852 -11.426173 4.712389
Au -33.400852 -11.426173 4.886922
Au -33.400852 -11.426173 5.061455
Au -33.400852 -11.426173 5.235988
Au -33.400852 -11.426173 5.410521
Au -33.400852 -11.426173 5.585054
Au -33.400852 -11.426173 5.759587
Au -33.400852 -11.426173 5.934119
Au -33.400852 -11.426173 6.108652
Au -33.400852 -11.426173 6.283185
Au -34.506494 -9.858397 0.087266
Au -34.506494 -9.858397 0.261799
Au -34.506494 -9.858397 0.436332
Au -34.506494 -9.858397 0.610865
Au -34.506494 -9.858397 0.785398
Au -34.506494 -9.858397 0.959931
Au -34.506494 -9.858397 1.134464
Au -34.506494 -9.858397 1.308997
Au -34.506494 -9.858397 1.483530
Au -34.506494 -9.858397 1.658063
Au -34.506494 -9.858397 1.832596
Au -34.506494 -9.858397 2.007129
Au -34.506494 -9.858397 2.181662
Au -34.506494 -9.858397 2.356194
Au -34.506494 -9.858397 2.530727
Au -34.506494 -9.858397 2.705260
Au -34.506494 -9.858397 2.879793
Au -34.506494 -9.858397 3.054326
Au -34.506494 -9.858397 3.228859
Au -34.506494 -9.858397 3.403392
Au -34.506494 -9.858397 3.577925
Au -34.506494 -9.858397 3.752458
Au -34.506494 -9.858397 3.926991
Au -34.506494 -9.858397 4.101524
Au -34.506494 -9.858397 4.276057
Au -34.506494 -9.858397 4.450590
Au -34.506494 -9.858397 4.625123
Au -34.506494 -9.858397 4.799655
Au -34.506494 -9.858397 4.974188
Au -34.506494 -9.858397 5.148721
Au -34.506494 -9.858397 5.323254
Au -34.506494 -9.858397 5.497787
Au -34.506494 -9.858397 5.672320
Au -34.506494 -9.858397 5.846853
Au -34.506494 -9.858397 6.021386
Au -34.506494 -9.858397 6.195919
Au -35.422009 -8.290621 0.000000
Au -35.422009 -8.290621 0.174533
Au -35.422009 -8.290621 0.349066
Au -35.422009 -8.290621 0.523599
Au -35.422009 -8.290621 0.698132
Au -35.422009 -8.290621 0.872665
Au -35.422009 -8.290621 1.047198
Au -35.422009 -8.290621 1.221730
Au -35.422009 -8.290621 1.396263
Au -35.422009 -8.290621 1.570796
Au -35.422009 -8.290621 1.745329
Au -35.422009 -8.290621 1.919862
Au -35.422009 -8.290621 2.094395
Au -35.422009 -8.290621 2.268928
Au -35.422009 -8.290621 2.443461
Au -35.422009 -8.290621 2.617994
Au -35.422009 -8.290621 2.792527
Au -35.422009 -8.290621 2.967060
Au -35.422009 -8.290621 3.141593
Au -35.422009 -8.290621 3.316126
Au -35.422009 -8.290621 3.490659
Au -35.422009 -8.290621 3.665191
Au -35.422009 -8.290621 3.839724
Au -35.422009 -8.290621 4.014257
Au -35.422009 -8.290621 4.188790
Au -35.422009 -8.290621 4.363323
Au -35.422009 -8.290621 4.537856
Au -35.422009 -8.290621 4.712389
Au -35.422009 -8.290621 4.886922
Au -35.422009 -8.290621 5.061455
Au -35.422009 -8.290621 5.235988
Au -35.422009 -8.290621 5.410521
Au -35.422009 -8.290621 5.585054
Au -35.422009 -8.290621 5.759587
Au -35.422009 -8.290621 5.934119
Au -35.422009 -8.290621 6.108652
Au -35.422009 -8.290621 6.283185
Au -36.161840 -6.722846 0.087266
Au -36.161840 -6.722846 0.261799
Au -36.161840 -6.722846 0.436332
Au -36.161840 -6.722846 0.610865
Au -36.161840 -6.722846 0.785398
Au -36.161840 -6.722846 0.959931
Au -36.161840 -6.722846 1.134464
Au -36.161840 -6.722846 1.308997
Au -36.161840 -6.722846 1.483530
Au -36.161840 -6.722846 1.658063
Au -36.161840 -6.722846 1.832596
Au -36.161840 -6.722846 2.007129
Au -36.161840 -6.722846 2.181662
Au -36.161840 -6.722846 2.356194
Au -36.161840 -6.722846 2.530727
Au -36.161840 -6.722846 2.705260
Au -36.161840 -6.722846 2.879793
Au -36.161840 -6.722846 3.054326
Au -36.161840 -6.722846 3.228859
Au -36.161840 -6.722846 3.403392
Au -36.161840 -6.722846 3.577925
Au -36.161840 -6.722846 3.752458
Au -36.161840 -6.722846 3.926991
Au -36.161840 -6.722846 4.101524
Au -36.161840 -6.722846 4.276057
Au -36.161840 -6.722846 4.450590
Au -36.161840 -6.722846 4.625123
Au -36.161840 -6.722846 4.799655
Au -36.161840 -6.722846 4.974188
Au -36.161840 -6.722846 5.148721
Au -36.161840 -6.722846 5.323254
Au -36.161840 -6.722846 5.497787
Au -36.161840 -6.722846 5.672320
Au -36.161840 -6.722846 5.846853
Au -36.161840 -6.722846 6.021386
Au -36.161840 -6.722846 6.195919
Au -36.736602 -5.155070 0.000000
Au -36.736602 -5.155070 0.174533
Au -36.736602 -5.155070 0.349066
Au -36.736602 -5.155070 0.523599
Au -36.736602 -5.155070 0.698132
Au -36.736602 -5.155070 0.872665
Au -36.736602 -5.155070 1.047198
Au -36.736602 -5.155070 1.221730
Au -36.736602 -5.155070 1.396263
Au -36.736602 -5.155070 1.570796
Au -36.736602 -5.155070 1.745329
Au -36.736602 -5.155070 1.919862
Au -36.736602 -5.155070 2.094395
Au -36.736602 -5.155070 2.268928
Au -36.736602 -5.155070 2.443461
Au -36.736602 -5.155070 2.617994
Au -36.736602 -5.155070 2.792527
Au -36.736602 -5.155070 2.967060
Au -36.736602 -5.155070 3.141593
Au -36.736602 -5.155070 3.316126
Au -36.736602 -5.155070 3.490659
Au -36.736602 -5.155070 3.665191
Au -36.736602 -5.155070 3.839724
Au -36.736602 -5.155070 4.014257
Au -36.736602 -5.155070 4.188790
Au -36.736602 -5.155070 4.363323
Au -36.736602 -5.155070 4.537856
Au -36.736602 -5.155070 4.712389
Au -36.736602 -5.155070 4.886922
Au -36.736602 -5.155070 5.061455
Au -36.736602 -5.155070 5.235988
Au -36.736602 -5.155070 5.410521
Au -36.736602 -5.155070 5.585054
Au -36.736602 -5.155070 5.759587
Au -36.736602 -5.155070 5.934119
Au -36.736602 -5.155070 6.108652
Au -36.736602 -5.155070 6.283185
Au -37.153958 -3.587294 0.087266
Au -37.153958 -3.587294 0.261799
Au -37.153958 -3.587294 0.436332
Au -37.153958 -3.587294 0.610865
Au -37.153958 -3.587294 0.785398
Au -37.153958 -3.587294 0.959931
Au -37.153958 -3.587294 1.134464
Au -37.153958 -3.587294 1.308997
Au -37.153958 -3.587294 1.483530
Au -37.153958 -3.587294 1.658063
Au -37.153958 -3.587294 1.832596
Au -37.153958 -3.587294 2.007129
Au -37.153958 -3.587294 2.181662
Au -37.153958 -3.587294 2.356194
Au -37.153958 -3.587294 2.530727
Au -37.153958 -3.587294 2.705260
Au -37.153958 -3.587294 2.879793
Au -37.153958 -3.587294 3.054326
Au -37.153958 -3.587294 3.228859
Au -37.153958 -3.587294 3.403392
Au -37.153958 -3.587294 3.577925
Au -37.153958 -3.587294 3.752458
Au -37.153958 -3.587294 3.926991
Au -37.153958 -3.587294 4.101524
Au -37.153958 -3.587294 4.276057
Au -37.153958 -3.587294 4.450590
Au -37.153958 -3.587294 4.625123
Au -37.153958 -3.587294 4.799655
Au -37.153958 -3.587294 4.974188
Au -37.153958 -3.587294 5.148721
Au -37.153958 -3.587294 5.323254
Au -37.153958 -3.587294 5.497787
Au -37.153958 -3.587294 5.672320
Au -37.153958 -3.587294 5.846853
Au -37.153958 -3.587294 6.021386
Au -37.153958 -3.587294 6.195919
Au -37.419174 -2.019518 0.000000
Au -37.419174 -2.019518 0.174533
Au -37.419174 -2.019518 0.349066
Au -37.419174 -2.019518 0.523599
Au -37.419174 -2.019518 0.698132
Au -37.419174 -2.019518 0.872665
Au -37.419174 -2.019518 1.047198
Au -37.419174 -2.019518 1.221730
Au -37.419174 -2.019518 1.396263
Au -37.419174 -2.019518 1.570796
Au -37.419174 -2.019518 1.745329
Au -37.419174 -2.019518 1.919862
Au -37.419174 -2.019518 2.094395
Au -37.419174 -2.019518 2.268928
Au -37.419174 -2.019518 2.443461
Au -37.419174 -2.019518 2.617994
Au -37.419174 -2.019518 2.792527
Au -37.419174 -2.019518 2.967060
Au -37.419174 -2.019518 3.141593
Au -37.419174 -2.019518 3.316126
Au -37.419174 -2.019518 3.490659
Au -37.419174 -2.019518 3.665191
Au -37.419174 -2.019518 3.839724
Au -37.419174 -2.019518 4.014257
Au -37.419174 -2.019518 4.188790
Au -37.419174 -2.019518 4.363323
Au -37.419174 -2.019518 4.537856
Au -37.419174 -2.019518 4.712389
Au -37.419174 -2.019518 4.886922
Au -37.419174 -2.019518 5.061455
Au -37.419174 -2.019518 5.235988
Au -37.419174 -2.019518 5.410521
Au -37.419174 -2.019518 5.585054
Au -37.419174 -2.019518 5.759587
Au -37.419174 -2.019518 5.934119
Au -37.419174 -2.019518 6.108652
Au -37.419174 -2.019518 6.283185
Au -37.535476 -0.451743 0.087266
Au -37.535476 -0.451743 0.261799
Au -37.535476 -0.451743 0.436332
Au -37.535476 -0.451743 0.610865
Au -37.535476 -0.451743 0.785398
Au -37.535476 -0.451743 0.959931
Au -37.535476 -0.451743 1.134464
Au -37.535476 -0.451743 1.308997
Au -37.535476 -0.451743 1.483530
Au -37.535476 -0.451743 1.658063
Au -37.535476 -0.451743 1.832596
Au -37.535476 -0.451743 2.007129
Au -37.535476 -0.451743 2.181662
Au -37.535476 -0.451743 2.356194
Au -37.535476 -0.451743 2.530727
Au -37.535476 -0.451743 2.705260
Au -37.535476 -0.451743 2.879793
Au -37.535476 -0.451743 3.054326
Au -37.535476 -0.451743 3.228859
Au -37.535476 -0.451743 3.403392
Au -37.535476 -0.451743 3.577925
Au -37.535476 -0.451743 3.752458
Au -37.535476 -0.451743 3.926991
Au -37.535476 -0.451743 4.101524
Au -37.535476 -0.451743 4.276057
Au -37.535476 -0.451743 4.450590
Au -37.535476 -0.451743 4.625123
Au -37.535476 -0.451743 4.799655
Au -37.535476 -0.451743 4.974188
Au -37.535476 -0.451743 5.148721
Au -37.535476 -0.451743 5.323254
Au -37.535476 -0.451743 5.497787
Au -37.535476 -0.451743 5.672320
Au -37.535476 -0.451743 5.846853
Au -37.535476 -0.451743 6.021386
Au -37.535476 -0.451743 6.195919
Au -37.504249 1.116033 0.000000
Au -37.504249 1.116033 0.174533
Au -37.504249 1.116033 0.349066
Au -37.504249 1.116033 0.523599
Au -37.504249 1.116033 0.698132
Au -37.504249 1.116033 0.872665
Au -37.504249 1.116033 1.047198
Au -37.504249 1.116033 1.221730
Au -37.504249 1.116033 1.396263
Au -37.504249 1.116033 1.570796
Au -37.504249 1.116033 1.745329
Au -37.504249 1.116033 1.919862
Au -37.504249 1.116033 2.094395
Au -37.504249 1.116033 2.268928
Au -37.504249 1.116033 2.443461
Au -37.504249 1.116033 2.617994
Au -37.504249 1.116033 2.792527
Au -37.504249 1.116033 2.967060
Au -37.504249 1.116033 3.141593
Au -37.504249 1.116033 3.316126
Au -37.504249 1.116033 3.490659
Au -37.504249 1.116033 3.665191
Au -37.504249 1.116033 3.839724
Au -37.504249 1.116033 4.014257
Au -37.504249 1.116033 4.188790
Au -37.504249 1.116033 4.363323
Au -37.504249 1.116033 4.537856
Au -37.504249 1.116033 4.712389
Au -37.504249 1.116033 4.886922
Au -37.504249 1.116033 5.061455
Au -37.504249 1.116033 5.235988
Au -37.504249 1.116033 5.410521
Au -37.504249 1.116033 5.585054
Au -37.504249 1.116033 5.759587
Au -37.504249 1.116033 5.934119
Au -37.504249 1.116033 6.108652
Au -37.504249 1.116033 6.283185
Au -37.325122 2.683809 0.087266
Au -37.325122 2.683809 0.261799
Au -37.325122 2.683809 0.436332
Au -37.325122 2.683809 0.610865
Au -37.325122 2.683809 0.785398
Au -37.325122 2.683809 0.959931
Au -37.325122 2.683809 1.134464
Au -37.325122 2.683809 1.308997
Au -37.325122 2.683809 1.483530
Au -37.325122 2.683809 1.658063
Au -37.325122 2.683809 1.832596
Au -37.325122 2.683809 2.007129
Au -37.325122 2.683809 2.181662
Au -37.325122 2.683809 2.356194
Au -37.325122 2.683809 2.530727
Au -37.325122 2.683809 2.705260
Au -37.325122 2.683809 2.879793
Au -37.325122 2.683809 3.054326
Au -37.325122 2.683809 3.228859
Au -37.325122 2.683809 3.403392
Au -37.325122 2.683809 3.577925
Au -37.325122 2.683809 3.752458
Au -37.325122 2.683809 3.926991
Au -37.325122 2.683809 4.101524
Au -37.325122 2.683809 4.276057
Au -37.325122 2.683809 4.450590
Au -37.325122 2.683809 4.625123
Au -37.325122 2.683809 4.799655
Au -37.325122 2.683809 4.974188
Au -37.325122 2.683809 5.148721
Au -37.325122 2.683809 5.323254
Au -37.325122 2.683809 5.497787
Au -37.325122 2.683809 5.672320
Au -37.325122 2.683809 5.846853
Au -37.325122 2.683809 6.021386
Au -37.325122 2.683809 6.195919
Au -36.995948 4.251585 0.000000
Au -36.995948 4.251585 0.174533
Au -36.995948 4.251585 0.349066
Au -36.995948 4.251585 0.523599
Au -36.995948 4.251585 0.698132
Au -36.995948 4.251585 0.872665
Au -36.995948 4.251585 1.047198
Au -36.995948 4.251585 1.221730
Au -36.995948 4.251585 1.396263
Au -36.995948 4.251585 1.570796
Au -36.995948 4.251585 1.745329
Au -36.995948 4.251585 1.919862
Au -36.995948 4.251585 2.094395
Au -36.995948 4.251585 2.268928
Au -36.995948 4.251585 2.443461
Au -36.995948 4.251585 2.617994
Au -36.995948 4.251585 2.792527
Au -36.995948 4.251585 2.967060
Au -36.995948 4.251585 3.141593
Au -36.995948 4.251585 3.316126
Au -36.995948 4.251585 3.490659
Au -36.995948 4.251585 3.665191
Au -36.995948 4.251585 3.839724
Au -36.995948 4.251585 4.014257
Au -36.995948 4.251585 4.188790
Au -36.995948 4.251585 4.363323
Au -36.995948 4.251585 4.537856
Au -36.995948 4.251585 4.712389
Au -36.995948 4.251585 4.886922
Au -36.995948 4.251585 5.061455
Au -36.995948 4.251585 5.235988
Au -36.995948 4.251585 5.410521
Au -36.995948 4.251585 5.585054
Au -36.995948 4.251585 5.759587
Au -36.995948 4.251585 5.934119
Au -36.995948 4.251585 6.108652
Au -36.995948 4.251585 6.283185
Au -36.512669 5.819361 0.087266
Au -36.512669 5.819361 0.261799
Au -36.512669 5.819361 0.436332
Au -36.512669 5.819361 0.610865
Au -36.512669 5.819361 0.785398
Au -36.512669 5.819361 0.959931
Au -36.512669 5.819361 1.134464
Au -36.512669 5.819361 1.308997
Au -36.512669 5.819361 1.483530
Au -36.512669 5.819361 1.658063
Au -36.512669 5.819361 1.832596
Au -36.512669 5.819361 2.007129
Au -36.512669 5.819361 2.181662
Au -36.512669 5.819361 2.356194
Au -36.512669 5.819361 2.530727
Au -36.512669 5.819361 2.705260
Au -36.512669 5.819361 2.879793
Au -36.512669 5.819361 3.054326
Au -36.512669 5.819361 3.228859
Au -36.512669 5.819361 3.403392
Au -36.512669 5.819361 3.577925
Au -36.512669 5.819361 3.752458
Au -36.512669 5.819361 3.926991
Au -36.512669 5.819361 4.101524
Au -36.512669 5.819361 4.276057
Au -36.512669 5.819361 4.450590
Au -36.512669 5.819361 4.625123
Au -36.512669 5.819361 4.799655
Au -36.512669 5.819361 4.974188
Au -36.512669 5.819361 5.148721
Au -36.512669 5.819361 5.323254
Au -36.512669 5.819361 5.497787
Au -36.512669 5.819361 5.672320
Au -36.512669 5.819361 5.846853
Au -36.512669 5.819361 6.021386
Au -36.512669 5.819361 6.195919
Au -35.869055 7.387136 0.000000
Au -35.869055 7.387136 0.174533
Au -35.869055 7.387136 0.349066
Au -35.869055 7.387136 0.523599
Au -35.869055 7.387136 0.698132
Au -35.869055 7.387136 0.872665
Au -35.869055 7.387136 1.047198
Au -35.869055 7.387136 1.221730
Au -35.869055 7.387136 1.396263
Au -35.869055 7.387136 1.570796
Au -35.869055 7.387136 1.745329
Au -35.869055 7.387136 1.919862
Au -35.869055 7.387136 2.094395
Au -35.869055 7.387136 2.268928
Au -35.869055 7.387136 2.443461
Au -35.869055 7.387136 2.617994
Au -35.869055 7.387136 2.792527
Au -35.869055 7.387136 2.967060
Au -35.869055 7.387136 3.141593
Au -35.869055 7.387136 3.316126
Au -35.869055 7.387136 3.490659
Au -35.869055 7.387136 3.665191
Au -35.869055 7.387136 3.839724
Au -35.869055 7.387136 4.014257
Au -35.869055 7.387136 4.188790
Au -35.869055 7.387136 4.363323
Au -35.869055 7.387136 4.537856
Au -35.869055 7.387136 4.712389
Au -35.869055 7.387136 4.886922
Au -35.869055 7.387136 5.061455
Au -35.869055 7.387136 5.235988
Au -35.869055 7.387136 5.410521
Au -35.869055 7.387136 5.585054
Au -35.869055 7.387136 5.759587
Au -35.869055 7.387136 5.934119
Au -35.869055 7.387136 6.108652
Au -35.869055 7.387136 6.283185
Au -35.056278 8.954912 0.087266
Au -35.056278 8.954912 0.261799
Au -35.056278 8.954912 0.436332
Au -35.056278 8.954912 0.610865
Au -35.056278 8.954912 0.785398
Au -35.056278 8.954912 0.959931
Au -35.056278 8.954912 1.134464
Au -35.056278 8.954912 1.308997
Au -35.056278 8.954912 1.483530
Au -35.056278 8.954912 1.658063
Au -35.056278 8.954912 1.832596
Au -35.056278 8.954912 2.007129
Au -35.056278 8.954912 2.181662
Au -35.056278 8.954912 2.356194
Au -35.056278 8.954912 2.530727
Au -35.056278 8.954912 2.705260
Au -35.056278 8.954912 2.879793
Au -35.056278 8.954912 3.054326
Au -35.056278 8.954912 3.228859
Au -35.056278 8.954912 3.403392
Au -35.056278 8.954912 3.577925
Au -35.056278 8.954912 3.752458
Au -35.056278 8.954912 3.926991
Au -35.056278 8.954912 4.101524
Au -35.056278 8.954912 4.276057
Au -35.056278 8.954912 4.450590
Au -35.056278 8.954912 4.625123
Au -35.056278 8.954912 4.799655
Au -35.056278 8.954912 4.974188
Au -35.056278 8.954912 5.148721
Au -35.056278 8.954912 5.323254
Au -35.056278 8.954912 5.497787
Au -35.056278 8.954912 5.672320
Au -35.056278 8.954912 5.846853
Au -35.056278 8.954912 6.021386
Au -35.056278 8.954912 6.195919
Au -34.062229 10.522688 0.000000
Au -34.062229 10.522688 0.174533
Au -34.062229 10.522688 0.349066
Au -34.062229 10.522688 0.523599
Au -34.062229 10.522688 0.698132
Au -34.062229 10.522688 0.872665
Au -34.062229 10.522688 1.047198
Au -34.062229 10.522688 1.221730
Au -34.062229 10.522688 1.396263
Au -34.062229 10.522688 1.570796
Au -34.062229 10.522688 1.745329
Au -34.062229 10.522688 1.919862
Au -34.062229 10.522688 2.094395
Au -34.062229 10.522688 2.268928
Au -34.062229 10.522688 2.443461
Au -34.062229 10.522688 2.617994
Au -34.062229 10.522688 2.792527
Au -34.062229 10.522688 2.967060
Au -34.062229 10.522688 3.141593
Au -34.062229 10.522688 3.316126
Au -34.062229 10.522688 3.490659
Au -34.062229 10.522688 3.665191
Au -34.062229 10.522688 3.839724
Au -34.062229 10.522688 4.014257
Au -34.062229 10.522688 4.188790
Au -34.062229 10.522688 4.363323
Au -34.062229 10.522688 4.537856
Au -34.062229 10.522688 4.712389
Au -34.062229 10.522688 4.886922
Au -34.062229 10.522688 5.061455
Au -34.062229 10.522688 5.235988
Au -34.062229 10.522688 5.410521
Au -34.062229 10.522688 5.585054
Au -34.062229 10.522688 5.759587
Au -34.062229 10.522688 5.934119
Au -34.062229 10.522688 6.108652
Au -34.062229 10.522688 6.283185
Au -32.870468 12.090464 0.087266
Au -32.870468 12.090464 0.261799
Au -32.870468 12.090464 0.436332
Au -32.870468 12.090464 0.610865
Au -32.870468 12.090464 0.785398
Au -32.870468 12.090464 0.959931
Au -32.870468 12.090464 1.134464
Au -32.870468 12.090464 1.308997
Au -32.870468 12.090464 1.483530
Au -32.870468 12.090464 1.658063
Au -32.870468 12.090464 1.832596
Au -32.870468 12.090464 2.007129
Au -32.870468 12.090464 2.181662
Au -32.870468 12.090464 2.356194
Au -32.870468 12.090464 2.530727
Au -32.870468 12.090464 2.705260
Au -32.870468 12.090464 2.879793
Au -32.870468 12.090464 3.054326
Au -32.870468 12.090464 3.228859
Au -32.870468 12.090464 3.403392
Au -32.870468 12.090464 3.577925
Au -32.870468 12.090464 3.752458
Au -32.870468 12.090464 3.926991
Au -32.870468 12.090464 4.101524
Au -32.870468 12.090464 4.276057
Au -32.870468 12.090464 4.450590
Au -32.870468 12.090464 4.625123
Au -32.870468 12.090464 4.799655
Au -32.870468 12.090464 4.974188
Au -32.870468 12.090464 5.148721
Au -32.870468 12.090464 5.323254
Au -32.870468 12.090464 5.497787
Au -32.870468 12.090464 5.672320
Au -32.870468 12.090464 5.846853
Au -32.870468 12.090464 6.021386
Au -32.870468 12.090464 6.195919
Au -31.458532 13.658239 0.000000
Au -31.458532 13.658239 0.174533
Au -31.458532 13.658239 0.349066
Au -31.458532 13.658239 0.523599
Au -31.458532 13.658239 0.698132
Au -31.458532 13.658239 0.872665
Au -31.458532 13.658239 1.047198
Au -31.458532 13.658239 1.221730
Au -31.458532 13.658239 1.396263
Au -31.458532 13.658239 1.570796
Au -31.458532 13.658239 1.745329
Au -31.458532 13.658239 1.919862
Au -31.458532 13.658239 2.094395
Au -31.458532 13.658239 2.268928
Au -31.458532 13.658239 2.443461
Au -31.458532 13.658239 2.617994
Au -31.458532 13.658239 2.792527
Au -31.458532 13.658239 2.967060
Au -31.458532 13.658239 3.141593
Au -31.458532 13.658239 3.316126
Au -31.458532 13.658239 3.490659
Au -31.458532 13.658239 3.665191
Au -31.458532 13.658239 3.839724
Au -31.458532 13.658239 4.014257
Au -31.458532 13.658239 4.188790
Au -31.458532 13.658239 4.363323
Au -31.458532 13.658239 4.537856
Au -31.458532 13.658239 4.712389
Au -31.458532 13.658239 4.886922
Au -31.458532 13.658239 5.061455
Au -31.458532 13.658239 5.235988
Au -31.458532 13.658239 5.410521
Au -31.458532 13.658239 5.585054
Au -31.458532 13.658239 5.759587
Au -31.458532 13.658239 5.934119
Au -31.458532 13.658239 6.108652
Au -31.458532 13.658239 6.283185
Au -29.795137 15.226015 0.087266
Au -29.795137 15.226015 0.261799
Au -29.795137 15.226015 0.436332
Au -29.795137 15.226015 0.610865
Au -29.795137 15.226015 0.785398
Au -29.795137 15.226015 0.959931
Au -29.795137 15.226015 1.134464
Au -29.795137 15.226015 1.308997
Au -29.795137 15.226015 1.483530
Au -29.795137 15.226015 1.658063
Au -29.795137 15.226015 1.832596
Au -29.795137 15.226015 2.007129
Au -29.795137 15.226015 2.181662
Au -29.795137 15.226015 2.356194
Au -29.795137 15.226015 2.530727
Au -29.795137 15.226015 2.705260
Au -29.795137 15.226015 2.879793
Au -29.795137 15.226015 3.054326
Au -29.795137 15.226015 3.228859
Au -29.795137 15.226015 3.403392
Au -29.795137 15.226015 3.577925
Au -29.795137 15.226015 3.752458
Au -29.795137 15.226015 3.926991
Au -29.795137 15.226015 4.101524
Au -29.795137 15.226015 4.276057
Au -29.795137 15.226015 4.450590
Au -29.795137 15.226015 4.625123
Au -29.795137 15.226015 4.799655
Au -29.795137 15.226015 4.974188
Au -29.795137 15.226015 5.148721
Au -29.795137 15.226015 5.323254
Au -29.795137 15.226015 5.497787
Au -29.795137 15.226015 5.672320
Au -29.795137 15.226015 5.846853
Au -29.795137 15.226015 6.021386
Au -29.795137 15.226015 6.195919
Au -27.835237 16.793791 0.000000
Au -27.835237 16.793791 0.174533
Au -27.835237 16.793791 0.349066
Au -27.835237 16.793791 0.523599
Au -27.835237 16.793791 0.698132
Au -27.835237 16.793791 0.872665
Au -27.835237 16.793791 1.047198
Au -27.835237 16.793791 1.221730
Au -27.835237 16.793791 1.396263
Au -27.835237 16.793791 1.570796
Au -27.835237 16.793791 1.745329
Au -27.835237 16.793791 1.919862
Au -27.835237 16.793791 2.094395
Au -27.835237 16.793791 2.268928
Au -27.835237 16.793791 2.443461
Au -27.835237 16.793791 2.617994
Au -27.835237 16.793791 2.792527
Au -27.835237 16.793791 2.967060
Au -27.835237 16.793791 3.141593
Au -27.835237 16.793791 3.316126
Au -27.835237 16.793791 3.490659
Au -27.835237 16.793791 3.665191
Au -27.835237 16.793791 3.839724
Au -27.835237 16.793791 4.014257
Au -27.835237 16.793791 4.188790
Au -27.835237 16.793791 4.363323
Au -27.835237 16.793791 4.537856
Au -27.835237 16.793791 4.712389
Au -27.835237 16.793791 4.886922
Au -27.835237 16.793791 5.061455
Au -27.835237 16.793791 5.235988
Au -27.835237 16.793791 5.410521
Au -27.835237 16.793791 5.585054
Au -27.835237 16.793791 5.759587
Au -27.835237 16.793791 5.934119
Au -27.835237 16.793791 6.108652
Au -27.835237 16.793791 6.283185
Au -25.510588 18.361567 0.087266
Au -25.510588 18.361567 0.261799
Au -25.510588 18.361567 0.436332
Au -25.510588 18.361567 0.610865
Au -25.510588 18.361567 0.785398
Au -25.510588 18.361567 0.959931
Au -25.510588 18.361567 1.134464
Au -25.510588 18.361567 1.308997
Au -25.510588 18.361567 1.483530
Au -25.510588 18.361567 1.658063
Au -25.510588 18.361567 1.832596
Au -25.510588 18.361567 2.007129
Au -25.510588 18.361567 2.181662
Au -25.510588 18.361567 2.356194
Au -25.510588 18.361567 2.530727
Au -25.510588 18.361567 2.705260
Au -25.510588 18.361567 2.879793
Au -25.510588 18.361567 3.054326
Au -25.510588 18.361567 3.228859
Au -25.510588 18.361567 3.403392
Au -25.510588 18.361567 3.577925
Au -25.510588 18.361567 3.752458
Au -25.510588 18.361567 3.926991
Au -25.510588 18.361567 4.101524
Au -25.510588 18.361567 4.276057
Au -25.510588 18.361567 4.450590
Au -25.510588 18.361567 4.625123
Au -25.510588 18.361567 4.799655
Au -25.510588 18.361567 4.974188
Au -25.510588 18.361567 5.148721
Au -25.510588 18.361567 5.323254
Au -25.510588 18.361567 5.497787
Au -25.510588 18.361567 5.672320
Au -25.510588 18.361567 5.846853
Au -25.510588 18.361567 6.021386
Au -25.510588 18.361567 6.195919
Au -22.709449 19.929343 0.000000
Au -22.709449 19.929343 0.174533
Au -22.709449 19.929343 0.349066
Au -22.709449 19.929343 0.523599
Au -22.709449 19.929343 0.698132
Au -22.709449 19.929343 0.872665
Au -22.709449 19.929343 1.047198
Au -22.709449 19.929343 1.221730
Au -22.709449 19.929343 1.396263
Au -22.709449 19.929343 1.570796
Au -22.709449 19.929343 1.745329
Au -22.709449 19.929343 1.919862
Au -22.709449 19.929343 2.094395
Au -22.709449 19.929343 2.268928
Au -22.709449 19.929343 2.443461
Au -22.709449 19.929343 2.617994
Au -22.709449 19.929343 2.792527
Au -22.709449 19.929343 2.967060
Au -22.709449 19.929343 3.141593
Au -22.709449 19.929343 3.316126
Au -22.709449 19.929343 3.490659
Au -22.709449 19.929343 3.665191
Au -22.709449 19.929343 3.839724
Au -22.709449 19.929343 4.014257
Au -22.709449 19.929343 4.188790
Au -22.709449 19.929343 4.363323
Au -22.709449 19.929343 4.537856
Au -22.709449 19.929343 4.712389
Au -22.709449 19.929343 4.886922
Au -22.709449 19.929343 5.061455
Au -22.709449 19.929343 5.235988
Au -22.709449 19.929343 5.410521