
39732 atoms

4 atom types

0.000000 5.084700 xlo xhi
0.000000 5.084700 ylo yhi
0.000000 7.098580 zlo zhi

Masses

1 28.085500
2 15.999400
3 15.999400
4 1.008000

Atoms

1 1 1 0.0 -27.029418 -17.157378 0.264907
2 1 1 0.0 -24.430027 -19.450348 0.049969
3 1 1 0.0 -29.541519 -15.943335 0.193261
4 1 1 0.0 -26.844951 -18.147952 0.121615
5 1 2 0.0 -26.384342 -17.238003 0.214939
6 1 3 0.0 -27.356240 -17.959309 0.071646
7 1 2 0.0 -27.577944 -16.382769 0.028291
8 1 2 0.0 -28.435278 -16.855276 0.143292
9 1 2 0.0 -25.979694 -18.858601 0.171583
10 1 2 0.0 -28.455342 -16.511955 0.243230
11 1 2 0.0 -25.480081 -18.862869 0.099937
12 1 2 0.0 -25.591353 -18.497467 0.000000
13 1 1 0.0 -30.380274 -12.888022 0.264907
14 1 1 0.0 -28.467914 -15.145961 0.049969
15 1 1 0.0 -33.029041 -11.886328 0.193261
16 1 1 0.0 -31.052038 -14.051189 0.121615
17 1 2 0.0 -29.560337 -12.890789 0.214939
18 1 2 0.0 -31.782186 -13.953445 0.071646
19 1 2 0.0 -30.641806 -12.092267 0.028291
20 1 2 0.0 -32.185987 -12.774268 0.143292
21 1 2 0.0 -30.577825 -14.785622 0.171583
22 1 2 0.0 -31.914625 -12.366613 0.243230
23 1 2 0.0 -29.558417 -14.638545 0.099937
24 1 2 0.0 -29.348673 -14.214040 0.000000
25 1 1 0.0 -32.567804 -8.618665 0.264907
26 1 1 0.0 -31.158753 -10.841575 0.049969
27 1 1 0.0 -35.291792 -7.829321 0.193261
28 1 1 0.0 -33.850036 -9.954426 0.121615
29 1 2 0.0 -31.626247 -8.543575 0.214939
30 1 2 0.0 -34.729525 -9.947582 0.071646
31 1 2 0.0 -32.612011 -7.801764 0.028291
32 1 2 0.0 -34.650776 -8.693259 0.143292
33 1 2 0.0 -33.646645 -10.712644 0.171583
34 1 2 0.0 -34.167610 -8.221271 0.243230
35 1 2 0.0 -32.273179 -10.414221 0.099937
36 1 2 0.0 -31.838819 -9.930613 0.000000
37 1 1 0.0 -33.818514 -4.349309 0.264907
38 1 1 0.0 -32.835400 -6.537189 0.049969
39 1 1 0.0 -36.557907 -3.772315 0.193261
40 1 1 0.0 -35.573010 -5.857663 0.121615
41 1 2 0.0 -32.792550 -4.196361 0.214939
42 1 2 0.0 -36.557646 -5.941718 0.071646
43 1 2 0.0 -33.681032 -3.511262 0.028291
44 1 2 0.0 -36.094055 -4.612250 0.143292
45 1 2 0.0 -35.584047 -6.639665 0.171583
46 1 2 0.0 -35.445076 -4.075929 0.243230
47 1 2 0.0 -33.953036 -6.189898 0.099937
48 1 2 0.0 -33.346884 -5.647185 0.000000
49 1 1 0.0 -34.235232 -0.079952 0.264907
50 1 1 0.0 -33.649799 -2.232802 0.049969
51 1 1 0.0 -36.930035 0.284692 0.193261
52 1 1 0.0 -36.374048 -1.760900 0.121615
53 1 2 0.0 -33.154323 0.150852 0.214939
54 1 2 0.0 -37.430898 -1.935854 0.071646
55 1 2 0.0 -33.934145 0.779241 0.028291
56 1 2 0.0 -36.636746 -0.531242 0.143292
57 1 2 0.0 -36.570296 -2.566686 0.171583
58 1 2 0.0 -35.851454 0.069413 0.243230
59 1 2 0.0 -34.748407 -1.965574 0.099937
60 1 2 0.0 -34.003787 -1.363758 0.000000
61 1 1 0.0 -33.848775 4.189404 0.264907
62 1 1 0.0 -33.664586 2.071584 0.049969
63 1 1 0.0 -36.435578 4.341699 0.193261
64 1 1 0.0 -36.314211 2.335863 0.121615
65 1 2 0.0 -32.738247 4.498066 0.214939
66 1 2 0.0 -37.416197 2.070010 0.071646
67 1 2 0.0 -33.389911 5.069743 0.028291
68 1 2 0.0 -36.319244 3.549767 0.143292
69 1 2 0.0 -36.682189 1.506293 0.171583
70 1 2 0.0 -35.416741 4.214755 0.243230
71 1 2 0.0 -34.720130 2.258750 0.099937
72 1 2 0.0 -33.859103 2.919669 0.000000
73 1 1 0.0 -32.630617 8.458760 0.264907
74 1 1 0.0 -32.880839 6.375970 0.049969
75 1 1 0.0 -35.037867 8.398706 0.193261
76 1 1 0.0 -35.389133 6.432626 0.121615
77 1 2 0.0 -31.513528 8.845280 0.214939
78 1 2 0.0 -36.512470 6.075873 0.071646
79 1 2 0.0 -32.007684 9.360245 0.028291
80 1 2 0.0 -35.118224 7.630775 0.143292
81 1 2 0.0 -35.927899 5.579272 0.171583
82 1 2 0.0 -34.108795 8.360097 0.243230
83 1 2 0.0 -33.866143 6.483073 0.099937
84 1 2 0.0 -32.902261 7.203096 0.000000
85 1 1 0.0 -30.481207 12.728117 0.264907
86 1 1 0.0 -31.238512 10.680357 0.049969
87 1 1 0.0 -32.621002 12.455713 0.193261
88 1 1 0.0 -33.527269 10.529389 0.121615
89 1 2 0.0 -29.379210 13.192493 0.214939
90 1 2 0.0 -34.650228 10.081737 0.071646
91 1 2 0.0 -29.670577 13.650748 0.028291
92 1 2 0.0 -32.937179 11.711784 0.143292
93 1 2 0.0 -34.250243 9.652251 0.171583
94 1 2 0.0 -31.820115 12.505439 0.243230
95 1 2 0.0 -32.120654 10.707397 0.099937
96 1 2 0.0 -31.058287 11.486524 0.000000
97 1 1 0.0 -27.180508 16.997473 0.264907
98 1 1 0.0 -28.590026 14.984743 0.049969
99 1 1 0.0 -28.930682 16.512720 0.193261
100 1 1 0.0 -30.557863 14.626152 0.121615
101 1 2 0.0 -26.113205 17.539707 0.214939
102 1 2 0.0 -31.660782 14.087601 0.071646
103 1 2 0.0 -26.123556 17.941250 0.028291
104 1 2 0.0 -29.559969 15.792793 0.143292
105 1 2 0.0 -31.502045 13.725230 0.171583
106 1 2 0.0 -28.313867 16.650781 0.243230
107 1 2 0.0 -29.324899 14.931721 0.099937
108 1 2 0.0 -28.153404 15.769951 0.000000
109 1 1 0.0 -22.221278 21.266830 0.264907
110 1 1 0.0 -24.612689 19.289129 0.049969
111 1 1 0.0 -23.371263 20.569727 0.193261
112 1 1 0.0 -26.105679 18.722915 0.121615
113 1 2 0.0 -21.198746 21.886921 0.214939
114 1 2 0.0 -27.174639 18.093464 0.071646
115 1 2 0.0 -20.755309 22.231753 0.028291
116 1 2 0.0 -24.496768 19.873801 0.143292
117 1 2 0.0 -27.362619 17.798208 0.171583
118 1 2 0.0 -23.040745 20.796123 0.243230
119 1 2 0.0 -25.130769 19.156044 0.099937
120 1 2 0.0 -23.802303 20.053378 0.000000
121 1 1 0.0 -22.771105 -18.574000 0.264907
122 1 1 0.0 -20.526562 -21.008094 0.049969
123 1 1 0.0 -25.227281 -17.513764 0.193261
124 1 1 0.0 -22.872951 -19.879027 0.121615
125 1 2 0.0 -22.092182 -18.567207 0.214939
126 1 2 0.0 -23.425122 -19.802025 0.071646
127 1 2 0.0 -23.196334 -17.710854 0.028291
128 1 2 0.0 -24.249939 -18.483714 0.143292
129 1 2 0.0 -22.165867 -20.692446 0.171583
130 1 2 0.0 -24.174477 -18.025572 0.243230
131 1 2 0.0 -21.535121 -20.481489 0.099937
132 1 2 0.0 -21.536941 -20.006239 0.000000
133 1 1 0.0 -25.594055 -13.952139 0.264907
134 1 1 0.0 -23.919269 -16.358976 0.049969
135 1 1 0.0 -28.205486 -13.057139 0.193261
136 1 1 0.0 -26.457554 -15.391487 0.121615
137 1 2 0.0 -24.751511 -13.884784 0.214939
138 1 2 0.0 -27.215055 -15.385139 0.071646
139 1 2 0.0 -25.773406 -13.072538 0.028291
140 1 2 0.0 -27.448587 -14.008427 0.143292
141 1 2 0.0 -26.088992 -16.223403 0.171583
142 1 2 0.0 -27.113340 -13.500235 0.243230
143 1 2 0.0 -24.982028 -15.894676 0.099937
144 1 2 0.0 -24.698992 -15.373428 0.000000
145 1 1 0.0 -27.436954 -9.330277 0.264907
146 1 1 0.0 -26.180161 -11.709859 0.049969
147 1 1 0.0 -30.137785 -8.600515 0.193261
148 1 1 0.0 -28.841558 -10.903947 0.121615
149 1 2 0.0 -26.481342 -9.202361 0.214939
150 1 2 0.0 -29.738858 -10.968254 0.071646
151 1 2 0.0 -27.430583 -8.434222 0.028291
152 1 2 0.0 -29.550589 -9.533140 0.143292
153 1 2 0.0 -28.707308 -11.754361 0.171583
154 1 2 0.0 -29.027383 -8.974898 0.243230
155 1 2 0.0 -27.276476 -11.307864 0.099937
156 1 2 0.0 -26.794627 -10.740617 0.000000
157 1 1 0.0 -28.490623 -4.708415 0.264907
158 1 1 0.0 -27.588911 -7.060741 0.049969
159 1 1 0.0 -31.218997 -4.143890 0.193261
160 1 1 0.0 -30.309600 -6.416407 0.121615
161 1 2 0.0 -27.457913 -4.519939 0.214939
162 1 2 0.0 -31.304276 -6.551368 0.071646
163 1 2 0.0 -28.329756 -3.795906 0.028291
164 1 2 0.0 -30.781433 -5.057853 0.143292
165 1 2 0.0 -30.360299 -7.285318 0.171583
166 1 2 0.0 -30.112665 -4.449561 0.243230
167 1 2 0.0 -28.696249 -6.721052 0.099937
168 1 2 0.0 -28.063771 -6.107806 0.000000
169 1 1 0.0 -28.841689 -0.086554 0.264907
170 1 1 0.0 -28.273184 -2.411624 0.049969
171 1 1 0.0 -31.536780 0.312735 0.193261
172 1 1 0.0 -30.992116 -1.928867 0.121615
173 1 2 0.0 -27.760833 0.162484 0.214939
174 1 2 0.0 -32.052041 -2.134483 0.071646
175 1 2 0.0 -28.542655 0.842410 0.028291
176 1 2 0.0 -31.244247 -0.582567 0.143292
177 1 2 0.0 -31.201766 -2.816275 0.171583
178 1 2 0.0 -30.457906 0.075776 0.243230
179 1 2 0.0 -29.368476 -2.134240 0.099937
180 1 2 0.0 -28.616601 -1.474995 0.000000
181 1 1 0.0 -28.516116 4.535308 0.264907
182 1 1 0.0 -28.285608 2.237494 0.049969
183 1 1 0.0 -31.114533 4.769359 0.193261
184 1 1 0.0 -30.941133 2.558673 0.121615
185 1 2 0.0 -27.412444 4.844907 0.214939
186 1 2 0.0 -32.039453 2.282403 0.071646
187 1 2 0.0 -28.084890 5.480726 0.028291
188 1 2 0.0 -30.973477 3.892720 0.143292
189 1 2 0.0 -31.297233 1.652768 0.171583
190 1 2 0.0 -30.088592 4.601113 0.243230
191 1 2 0.0 -29.344577 2.452573 0.099937
192 1 2 0.0 -28.494839 3.157816 0.000000
193 1 1 0.0 -27.489871 9.157170 0.264907
194 1 1 0.0 -27.627090 6.886611 0.049969
195 1 1 0.0 -29.920943 9.225984 0.193261
196 1 1 0.0 -30.152930 7.046213 0.121615
197 1 2 0.0 -26.386960 9.527330 0.214939
198 1 2 0.0 -31.265593 6.699288 0.071646
199 1 2 0.0 -26.922272 10.119042 0.028291
200 1 2 0.0 -29.949234 8.368007 0.143292
201 1 2 0.0 -30.653673 6.121810 0.171583
202 1 2 0.0 -28.977416 9.126450 0.243230
203 1 2 0.0 -28.622809 7.039385 0.099937
204 1 2 0.0 -27.689589 7.790627 0.000000
205 1 1 0.0 -25.679087 13.779031 0.264907
206 1 1 0.0 -26.247176 11.535728 0.049969
207 1 1 0.0 -27.857037 13.682609 0.193261
208 1 1 0.0 -28.566548 11.533753 0.121615
209 1 2 0.0 -24.599850 14.209753 0.214939
210 1 2 0.0 -29.670956 11.116174 0.071646
211 1 2 0.0 -24.956487 14.757359 0.028291
212 1 2 0.0 -28.089213 12.843294 0.143292
213 1 2 0.0 -29.222298 10.590853 0.171583
214 1 2 0.0 -27.033048 13.651787 0.243230
215 1 2 0.0 -27.147566 11.626197 0.099937
216 1 2 0.0 -26.137754 12.423438 0.000000
217 1 1 0.0 -22.898392 18.400893 0.264907
218 1 1 0.0 -24.021870 16.184846 0.049969
219 1 1 0.0 -24.705651 18.139233 0.193261
220 1 1 0.0 -26.036498 16.021294 0.121615
221 1 2 0.0 -21.865153 18.892175 0.214939
222 1 2 0.0 -27.111097 15.533059 0.071646
223 1 2 0.0 -21.973020 19.395675 0.028291
224 1 2 0.0 -25.209088 17.318581 0.143292
225 1 2 0.0 -26.877536 15.059896 0.171583
226 1 2 0.0 -24.054286 18.177124 0.243230
227 1 2 0.0 -24.784664 16.213009 0.099937
228 1 2 0.0 -23.693088 17.056249 0.000000
229 1 1 0.0 -18.720457 23.022755 0.264907
230 1 1 0.0 -20.680037 20.833963 0.049969
231 1 1 0.0 -19.958128 22.595858 0.193261
232 1 1 0.0 -22.243063 20.508834 0.121615
233 1 2 0.0 -17.750170 23.574598 0.214939
234 1 2 0.0 -23.269617 19.949945 0.071646
235 1 2 0.0 -17.457685 24.033991 0.028291
236 1 2 0.0 -20.891132 21.793868 0.143292
237 1 2 0.0 -23.345779 19.528939 0.171583
238 1 2 0.0 -19.574460 22.702461 0.243230
239 1 2 0.0 -21.239892 20.799822 0.099937
240 1 2 0.0 -20.031328 21.689060 0.000000
241 1 1 0.0 -18.512792 -19.671171 0.264907
242 1 1 0.0 -16.623096 -22.213049 0.049969
243 1 1 0.0 -20.913044 -18.734894 0.193261
244 1 1 0.0 -18.900951 -21.224638 0.121615
245 1 2 0.0 -17.800021 -19.593515 0.214939
246 1 2 0.0 -19.494003 -21.235120 0.071646
247 1 2 0.0 -18.814723 -18.738696 0.028291
248 1 2 0.0 -20.064600 -19.749731 0.143292
249 1 2 0.0 -18.352041 -22.118247 0.171583
250 1 2 0.0 -19.893612 -19.201394 0.243230
251 1 2 0.0 -17.590161 -21.736784 0.099937
252 1 2 0.0 -17.482528 -21.174217 0.000000
253 1 1 0.0 -20.807836 -14.776295 0.264907
254 1 1 0.0 -19.370623 -17.297273 0.049969
255 1 1 0.0 -23.381931 -13.967536 0.193261
256 1 1 0.0 -21.863071 -16.433336 0.121615
257 1 2 0.0 -19.942685 -14.652270 0.214939
258 1 2 0.0 -22.647924 -16.498579 0.071646
259 1 2 0.0 -20.905006 -13.831197 0.028291
260 1 2 0.0 -22.711187 -14.967915 0.143292
261 1 2 0.0 -21.600158 -17.341268 0.171583
262 1 2 0.0 -22.312055 -14.380866 0.243230
263 1 2 0.0 -20.405639 -16.868850 0.099937
264 1 2 0.0 -20.049311 -16.270939 0.000000
265 1 1 0.0 -22.306104 -9.881419 0.264907
266 1 1 0.0 -21.201570 -12.381498 0.049969
267 1 1 0.0 -24.983779 -9.200177 0.193261
268 1 1 0.0 -23.833081 -11.642035 0.121615
269 1 2 0.0 -21.336438 -9.711025 0.214939
270 1 2 0.0 -24.748191 -11.762039 0.071646
271 1 2 0.0 -22.249155 -8.923698 0.028291
272 1 2 0.0 -24.450401 -10.186100 0.143292
273 1 2 0.0 -23.767971 -12.564288 0.171583
274 1 2 0.0 -23.887155 -9.560338 0.243230
275 1 2 0.0 -22.279773 -12.000915 0.099937
276 1 2 0.0 -21.750434 -11.367661 0.000000
277 1 1 0.0 -23.162731 -4.986543 0.264907
278 1 1 0.0 -22.342422 -7.465722 0.049969
279 1 1 0.0 -25.880088 -4.432819 0.193261
280 1 1 0.0 -25.046190 -6.850733 0.121615
281 1 2 0.0 -22.123276 -4.769780 0.214939
282 1 2 0.0 -26.050907 -7.025498 0.071646
283 1 2 0.0 -22.978481 -4.016199 0.028291
284 1 2 0.0 -25.468812 -5.404284 0.143292
285 1 2 0.0 -25.136551 -7.787309 0.171583
286 1 2 0.0 -24.780253 -4.739809 0.243230
287 1 2 0.0 -23.439461 -7.132980 0.099937
288 1 2 0.0 -22.780657 -6.464384 0.000000
289 1 1 0.0 -23.448146 -0.091667 0.264907
290 1 1 0.0 -22.896570 -2.549947 0.049969
291 1 1 0.0 -26.143525 0.334540 0.193261
292 1 1 0.0 -25.610183 -2.059432 0.121615
293 1 2 0.0 -22.367344 0.171466 0.214939
294 1 2 0.0 -26.673184 -2.288958 0.071646
295 1 2 0.0 -23.151165 0.891299 0.028291
296 1 2 0.0 -25.851748 -0.622469 0.143292
297 1 2 0.0 -25.833236 -3.010329 0.171583
298 1 2 0.0 -25.064359 0.080719 0.243230
299 1 2 0.0 -23.988545 -2.265046 0.099937
300 1 2 0.0 -23.229415 -1.561106 0.000000
301 1 1 0.0 -23.183457 4.803210 0.264907
302 1 1 0.0 -22.906631 2.365829 0.049969
303 1 1 0.0 -25.793488 5.101898 0.193261
304 1 1 0.0 -25.568054 2.731870 0.121615
305 1 2 0.0 -22.086641 5.112711 0.214939
306 1 2 0.0 -26.662708 2.447583 0.071646
307 1 2 0.0 -22.779868 5.798798 0.028291
308 1 2 0.0 -25.627711 4.159347 0.143292
309 1 2 0.0 -25.912278 1.766651 0.171583
310 1 2 0.0 -24.760444 4.901247 0.243230
311 1 2 0.0 -23.969025 2.602889 0.099937
312 1 2 0.0 -23.130576 3.342172 0.000000
313 1 1 0.0 -22.349125 9.698086 0.264907
314 1 1 0.0 -22.373341 7.281604 0.049969
315 1 1 0.0 -24.804020 9.869257 0.193261
316 1 1 0.0 -24.916726 7.523171 0.121615
317 1 2 0.0 -21.260393 10.053956 0.214939
318 1 2 0.0 -26.018715 7.184124 0.071646
319 1 2 0.0 -21.836860 10.706297 0.028291
320 1 2 0.0 -24.780243 8.941162 0.143292
321 1 2 0.0 -25.379447 6.543630 0.171583
322 1 2 0.0 -23.846036 9.721776 0.243230
323 1 2 0.0 -23.379475 7.470824 0.099937
324 1 2 0.0 -22.476916 8.245449 0.000000
325 1 1 0.0 -20.876967 14.592962 0.264907
326 1 1 0.0 -21.255841 12.197380 0.049969
327 1 1 0.0 -23.093072 14.636615 0.193261
328 1 1 0.0 -23.605827 12.314473 0.121615
329 1 2 0.0 -19.820489 14.995201 0.214939
330 1 2 0.0 -24.691684 11.920664 0.071646
331 1 2 0.0 -20.242397 15.613796 0.028291
332 1 2 0.0 -23.241246 13.722978 0.143292
333 1 2 0.0 -24.194352 11.320610 0.171583
334 1 2 0.0 -22.245982 14.542304 0.243230
335 1 2 0.0 -22.174477 12.338758 0.099937
336 1 2 0.0 -21.217220 13.148727 0.000000
337 1 1 0.0 -18.616276 19.487838 0.264907
338 1 1 0.0 -19.453713 17.113156 0.049969
339 1 1 0.0 -20.480620 19.403974 0.193261
340 1 1 0.0 -21.515133 17.105774 0.121615
341 1 2 0.0 -17.617100 19.936447 0.214939
342 1 2 0.0 -22.561411 16.657205 0.071646
343 1 2 0.0 -17.822484 20.521295 0.028291
344 1 2 0.0 -20.858208 18.504793 0.143292
345 1 2 0.0 -22.253027 16.097589 0.171583
346 1 2 0.0 -19.794704 19.362832 0.243230
347 1 2 0.0 -20.244430 17.206693 0.099937
348 1 2 0.0 -19.232773 18.052004 0.000000
349 1 1 0.0 -15.219636 24.382714 0.264907
350 1 1 0.0 -16.747385 22.028931 0.049969
351 1 1 0.0 -16.544993 24.171332 0.193261
352 1 1 0.0 -18.380446 21.897076 0.121615
353 1 2 0.0 -14.301594 24.877692 0.214939
354 1 2 0.0 -19.364594 21.393745 0.071646
355 1 2 0.0 -14.160062 25.428794 0.028291
356 1 2 0.0 -17.285495 23.286609 0.143292
357 1 2 0.0 -19.328938 20.874569 0.171583
358 1 2 0.0 -16.108175 24.183361 0.243230
359 1 2 0.0 -17.349014 22.074628 0.099937
360 1 2 0.0 -16.260353 22.955282 0.000000
361 1 1 0.0 -14.254479 -20.500245 0.264907
362 1 1 0.0 -12.719630 -23.120438 0.049969
363 1 1 0.0 -16.598806 -19.671882 0.193261
364 1 1 0.0 -14.928952 -22.254814 0.121615
365 1 2 0.0 -13.507861 -20.362779 0.214939
366 1 2 0.0 -15.562885 -22.337573 0.071646
367 1 2 0.0 -14.433112 -19.513798 0.028291
368 1 2 0.0 -15.879260 -20.719866 0.143292
369 1 2 0.0 -14.538214 -23.211322 0.171583
370 1 2 0.0 -15.612747 -20.098796 0.243230
371 1 2 0.0 -13.645201 -22.689140 0.099937
372 1 2 0.0 -13.428116 -22.055608 0.000000
373 1 1 0.0 -16.021618 -15.399066 0.264907
374 1 1 0.0 -14.821978 -18.003856 0.049969
375 1 1 0.0 -18.558376 -14.666094 0.193261
376 1 1 0.0 -17.268587 -17.230958 0.121615
377 1 2 0.0 -15.133860 -15.227535 0.214939
378 1 2 0.0 -18.080792 -17.355128 0.071646
379 1 2 0.0 -16.036606 -14.403307 0.028291
380 1 2 0.0 -17.973788 -15.703161 0.143292
381 1 2 0.0 -17.111325 -18.198266 0.171583
382 1 2 0.0 -17.510770 -15.052974 0.243230
383 1 2 0.0 -15.829249 -17.607926 0.099937
384 1 2 0.0 -15.399631 -16.948228 0.000000
385 1 1 0.0 -17.175253 -10.297887 0.264907
386 1 1 0.0 -16.222978 -12.887274 0.049969
387 1 1 0.0 -19.829772 -9.660305 0.193261
388 1 1 0.0 -18.824603 -12.207102 0.121615
389 1 2 0.0 -16.191533 -10.092291 0.214939
390 1 2 0.0 -19.757525 -12.372683 0.071646
391 1 2 0.0 -17.067727 -9.292815 0.028291
392 1 2 0.0 -19.350213 -10.686456 0.143292
393 1 2 0.0 -18.828634 -13.185210 0.171583
394 1 2 0.0 -18.746928 -10.007152 0.243230
395 1 2 0.0 -17.283070 -12.526712 0.099937
396 1 2 0.0 -16.706242 -11.840848 0.000000
397 1 1 0.0 -17.834839 -5.196709 0.264907
398 1 1 0.0 -17.095934 -7.770692 0.049969
399 1 1 0.0 -20.541178 -4.654517 0.193261
400 1 1 0.0 -19.782779 -7.183246 0.121615
401 1 2 0.0 -16.788640 -4.957047 0.214939
402 1 2 0.0 -20.797537 -7.390238 0.071646
403 1 2 0.0 -17.627206 -4.182324 0.028291
404 1 2 0.0 -20.156191 -5.669750 0.143292
405 1 2 0.0 -19.912802 -8.172154 0.171583
406 1 2 0.0 -19.447842 -4.961330 0.243230
407 1 2 0.0 -18.182674 -7.445498 0.099937
408 1 2 0.0 -17.497544 -6.733468 0.000000
409 1 1 0.0 -18.054603 -0.095530 0.264907
410 1 1 0.0 -17.519955 -2.654110 0.049969
411 1 1 0.0 -20.750269 0.351271 0.193261
412 1 1 0.0 -20.228251 -2.159390 0.121615
413 1 2 0.0 -16.973855 0.178198 0.214939
414 1 2 0.0 -21.294328 -2.407792 0.071646
415 1 2 0.0 -17.759675 0.928167 0.028291
416 1 2 0.0 -20.459249 -0.653045 0.143292
417 1 2 0.0 -20.464706 -3.159098 0.171583
418 1 2 0.0 -19.670811 0.084492 0.243230
419 1 2 0.0 -18.608615 -2.364284 0.099937
420 1 2 0.0 -17.842229 -1.626088 0.000000
421 1 1 0.0 -17.850798 5.005649 0.264907
422 1 1 0.0 -17.527654 2.462472 0.049969
423 1 1 0.0 -20.472443 5.357059 0.193261
424 1 1 0.0 -20.194975 2.864466 0.121615
425 1 2 0.0 -16.760839 5.313442 0.214939
426 1 2 0.0 -21.285964 2.574653 0.071646
427 1 2 0.0 -17.474846 6.038658 0.028291
428 1 2 0.0 -20.281944 4.363660 0.143292
429 1 2 0.0 -20.527322 1.853958 0.171583
430 1 2 0.0 -19.432295 5.130313 0.243230
431 1 2 0.0 -18.593472 2.716930 0.099937
432 1 2 0.0 -17.766312 3.481292 0.000000
433 1 1 0.0 -17.208379 10.106827 0.264907
434 1 1 0.0 -17.119592 7.579054 0.049969
435 1 1 0.0 -19.687096 10.362848 0.193261
436 1 1 0.0 -19.680522 7.888322 0.121615
437 1 2 0.0 -16.133825 10.448686 0.214939
438 1 2 0.0 -20.771837 7.557098 0.071646
439 1 2 0.0 -16.751448 11.149149 0.028291
440 1 2 0.0 -19.611252 9.380365 0.143292
441 1 2 0.0 -20.105221 6.867014 0.171583
442 1 2 0.0 -18.714657 10.176135 0.243230
443 1 2 0.0 -18.136141 7.798144 0.099937
444 1 2 0.0 -17.264244 8.588672 0.000000
445 1 1 0.0 -16.074846 15.208006 0.264907
446 1 1 0.0 -16.264505 12.695636 0.049969
447 1 1 0.0 -18.329107 15.368636 0.193261
448 1 1 0.0 -18.645107 12.912178 0.121615
449 1 2 0.0 -15.041129 15.583930 0.214939
450 1 2 0.0 -19.712413 12.539544 0.071646
451 1 2 0.0 -15.528307 16.259640 0.028291
452 1 2 0.0 -18.393280 14.397071 0.143292
453 1 2 0.0 -19.166407 11.880070 0.171583
454 1 2 0.0 -17.458915 15.221957 0.243230
455 1 2 0.0 -17.201389 12.879358 0.099937
456 1 2 0.0 -16.296687 13.696052 0.000000
457 1 1 0.0 -14.334160 20.309185 0.264907
458 1 1 0.0 -14.885556 17.812218 0.049969
459 1 1 0.0 -16.255588 20.374424 0.193261
460 1 1 0.0 -16.993768 17.936034 0.121615
461 1 2 0.0 -13.369048 20.719174 0.214939
462 1 2 0.0 -18.011726 17.521989 0.071646
463 1 2 0.0 -13.671948 21.370131 0.028291
464 1 2 0.0 -16.507327 19.413776 0.143292
465 1 2 0.0 -17.628517 16.893126 0.171583
466 1 2 0.0 -15.535123 20.267779 0.243230
467 1 2 0.0 -15.704195 17.960571 0.099937
468 1 2 0.0 -14.772457 18.803432 0.000000
469 1 1 0.0 -11.718815 25.410363 0.264907
470 1 1 0.0 -12.814733 22.928800 0.049969
471 1 1 0.0 -13.131858 25.380213 0.193261
472 1 1 0.0 -14.517830 22.959890 0.121615
473 1 2 0.0 -10.853017 25.854418 0.214939
474 1 2 0.0 -15.459572 22.504434 0.071646
475 1 2 0.0 -10.862438 26.480623 0.028291
476 1 2 0.0 -13.679858 24.430481 0.143292
477 1 2 0.0 -15.312098 21.906182 0.171583
478 1 2 0.0 -12.641890 25.313601 0.243230
479 1 2 0.0 -13.458137 23.041785 0.099937
480 1 2 0.0 -12.489378 23.910812 0.000000
481 1 1 0.0 -9.996167 -21.092859 0.264907
482 1 1 0.0 -8.816164 -23.764372 0.049969
483 1 1 0.0 -12.284568 -20.363987 0.193261
484 1 1 0.0 -10.956952 -23.011958 0.121615
485 1 2 0.0 -9.215701 -20.903395 0.214939
486 1 2 0.0 -11.631766 -23.156657 0.071646
487 1 2 0.0 -10.051502 -20.065469 0.028291
488 1 2 0.0 -11.693921 -21.434334 0.143292
489 1 2 0.0 -10.724388 -24.017143 0.171583
490 1 2 0.0 -11.331882 -20.753924 0.243230
491 1 2 0.0 -9.700242 -23.375611 0.099937
492 1 2 0.0 -9.373704 -22.683845 0.000000
493 1 1 0.0 -11.235399 -15.844217 0.264907
494 1 1 0.0 -10.273333 -18.505287 0.049969
495 1 1 0.0 -13.734821 -15.182083 0.193261
496 1 1 0.0 -12.674103 -17.817183 0.121615
497 1 2 0.0 -10.325034 -15.631814 0.214939
498 1 2 0.0 -13.513661 -17.991514 0.071646
499 1 2 0.0 -11.168206 -14.810500 0.028291
500 1 2 0.0 -13.236388 -16.244641 0.143292
501 1 2 0.0 -12.622491 -18.830050 0.171583
502 1 2 0.0 -12.709485 -15.543632 0.243230
503 1 2 0.0 -11.252860 -18.140663 0.099937
504 1 2 0.0 -10.749950 -17.430985 0.000000
505 1 1 0.0 -12.044403 -10.595575 0.264907
506 1 1 0.0 -11.244386 -13.246201 0.049969
507 1 1 0.0 -14.675766 -10.000179 0.193261
508 1 1 0.0 -13.816126 -12.622407 0.121615
509 1 2 0.0 -11.046629 -10.360233 0.214939
510 1 2 0.0 -14.766858 -12.826370 0.071646
511 1 2 0.0 -11.886299 -9.555531 0.028291
512 1 2 0.0 -14.250026 -11.054949 0.143292
513 1 2 0.0 -13.889297 -13.642957 0.171583
514 1 2 0.0 -13.606700 -10.333339 0.243230
515 1 2 0.0 -12.286367 -12.905714 0.099937
516 1 2 0.0 -11.662050 -12.178125 0.000000
517 1 1 0.0 -12.506947 -5.346933 0.264907
518 1 1 0.0 -11.849445 -7.987116 0.049969
519 1 1 0.0 -15.202268 -4.818274 0.193261
520 1 1 0.0 -14.519369 -7.427632 0.121615
521 1 2 0.0 -11.454003 -5.088652 0.214939
522 1 2 0.0 -15.544168 -7.661226 0.071646
523 1 2 0.0 -12.275931 -4.300562 0.028291
524 1 2 0.0 -14.843569 -5.865256 0.143292
525 1 2 0.0 -14.689054 -8.455865 0.171583
526 1 2 0.0 -14.115431 -5.123047 0.243230
527 1 2 0.0 -12.925887 -7.670766 0.099937
528 1 2 0.0 -12.214431 -6.925266 0.000000
529 1 1 0.0 -12.661060 -0.098292 0.264907
530 1 1 0.0 -12.143341 -2.728031 0.049969
531 1 1 0.0 -15.357014 0.363630 0.193261
532 1 1 0.0 -14.846319 -2.232856 0.121615
533 1 2 0.0 -11.580365 0.182929 0.214939
534 1 2 0.0 -15.915471 -2.496082 0.071646
535 1 2 0.0 -12.368185 0.954407 0.028291
536 1 2 0.0 -15.066750 -0.675564 0.143292
537 1 2 0.0 -15.096176 -3.268772 0.171583
538 1 2 0.0 -14.277264 0.087246 0.243230
539 1 2 0.0 -13.228684 -2.435817 0.099937
540 1 2 0.0 -12.455043 -1.672406 0.000000
541 1 1 0.0 -12.518139 5.150350 0.264907
542 1 1 0.0 -12.148677 2.531055 0.049969
543 1 1 0.0 -15.151398 5.545534 0.193261
544 1 1 0.0 -14.821896 2.961920 0.121615
545 1 2 0.0 -11.435036 5.454509 0.214939
546 1 2 0.0 -15.909220 2.669062 0.071646
547 1 2 0.0 -12.169825 6.209376 0.028291
548 1 2 0.0 -14.936178 4.514129 0.143292
549 1 2 0.0 -15.142366 1.918321 0.171583
550 1 2 0.0 -14.104147 5.297538 0.243230
551 1 2 0.0 -13.217919 2.799132 0.099937
552 1 2 0.0 -12.402048 3.580454 0.000000
553 1 1 0.0 -12.067633 10.398992 0.264907
554 1 1 0.0 -11.865843 7.790140 0.049969
555 1 1 0.0 -14.570173 10.727438 0.193261
556 1 1 0.0 -14.444319 8.156695 0.121615
557 1 2 0.0 -11.007258 10.726090 0.214939
558 1 2 0.0 -15.524959 7.834205 0.071646
559 1 2 0.0 -11.666036 11.464345 0.028291
560 1 2 0.0 -14.442262 9.703821 0.143292
561 1 2 0.0 -14.830995 7.105414 0.171583
562 1 2 0.0 -13.583278 10.507831 0.243230
563 1 2 0.0 -12.892807 8.034080 0.099937
564 1 2 0.0 -12.051572 8.833313 0.000000
565 1 1 0.0 -11.272726 15.647634 0.264907
566 1 1 0.0 -11.273170 13.049225 0.049969
567 1 1 0.0 -13.565142 15.909342 0.193261
568 1 1 0.0 -13.684386 13.351471 0.121615
569 1 2 0.0 -10.261769 15.997671 0.214939
570 1 2 0.0 -14.733141 12.999349 0.071646
571 1 2 0.0 -10.814216 16.719314 0.028291
572 1 2 0.0 -13.545314 14.893514 0.143292
573 1 2 0.0 -14.138461 12.292507 0.171583
574 1 2 0.0 -12.671848 15.718123 0.243230
575 1 2 0.0 -12.228301 13.269029 0.099937
576 1 2 0.0 -11.376154 14.086173 0.000000
577 1 1 0.0 -10.052044 20.896276 0.264907
578 1 1 0.0 -10.317400 18.308311 0.049969
579 1 1 0.0 -12.030557 21.091247 0.193261
580 1 1 0.0 -12.472403 18.546247 0.121615
581 1 2 0.0 -9.120996 21.269252 0.214939
582 1 2 0.0 -13.462040 18.164493 0.071646
583 1 2 0.0 -9.521412 21.974283 0.028291
584 1 2 0.0 -12.156447 20.083207 0.143292
585 1 2 0.0 -13.004008 17.479600 0.171583
586 1 2 0.0 -11.275541 20.928415 0.243230
587 1 2 0.0 -11.163960 18.503978 0.099937
588 1 2 0.0 -10.312142 19.339033 0.000000
589 1 1 0.0 -8.217994 26.144917 0.264907
590 1 1 0.0 -8.882082 23.567396 0.049969
591 1 1 0.0 -9.718724 26.273151 0.193261
592 1 1 0.0 -10.655213 23.741022 0.121615
593 1 2 0.0 -7.404441 26.540833 0.214939
594 1 2 0.0 -11.554550 23.329637 0.071646
595 1 2 0.0 -7.564814 27.229252 0.028291
596 1 2 0.0 -10.074221 25.272899 0.143292
597 1 2 0.0 -11.295258 22.666693 0.171583
598 1 2 0.0 -9.175605 26.138708 0.243230
599 1 2 0.0 -9.567259 23.738926 0.099937
600 1 2 0.0 -8.718403 24.591892 0.000000
601 1 1 0.0 -5.737854 -21.468604 0.264907
602 1 1 0.0 -4.912698 -24.165920 0.049969
603 1 1 0.0 -7.970330 -20.835627 0.193261
604 1 1 0.0 -6.984952 -23.522451 0.121615
605 1 2 0.0 -4.923541 -21.232835 0.214939
606 1 2 0.0 -7.700648 -23.721744 0.071646
607 1 2 0.0 -5.669891 -20.411835 0.028291
608 1 2 0.0 -7.508582 -21.918150 0.143292
609 1 2 0.0 -6.910561 -24.563996 0.171583
610 1 2 0.0 -7.051017 -21.189263 0.243230
611 1 2 0.0 -5.755282 -23.819198 0.099937
612 1 2 0.0 -5.319291 -23.079608 0.000000
613 1 1 0.0 -6.449180 -16.126463 0.264907
614 1 1 0.0 -5.724687 -18.817971 0.049969
615 1 1 0.0 -8.911266 -15.533707 0.193261
616 1 1 0.0 -8.079620 -18.212435 0.121615
617 1 2 0.0 -5.516208 -15.878173 0.214939
618 1 2 0.0 -8.946530 -18.430556 0.071646
619 1 2 0.0 -6.299806 -15.066156 0.028291
620 1 2 0.0 -8.498989 -16.611316 0.143292
621 1 2 0.0 -8.133658 -19.258797 0.171583
622 1 2 0.0 -7.908200 -15.869679 0.243230
623 1 2 0.0 -6.676471 -18.484909 0.099937
624 1 2 0.0 -6.100269 -17.735102 0.000000
625 1 1 0.0 -6.913553 -10.784323 0.264907
626 1 1 0.0 -6.265795 -13.470023 0.049969
627 1 1 0.0 -9.521759 -10.231788 0.193261
628 1 1 0.0 -8.807648 -12.902420 0.121615
629 1 2 0.0 -5.901724 -10.523512 0.214939
630 1 2 0.0 -9.776191 -13.139369 0.071646
631 1 2 0.0 -6.704871 -9.720477 0.028291
632 1 2 0.0 -9.149838 -11.304481 0.143292
633 1 2 0.0 -8.949959 -13.953598 0.171583
634 1 2 0.0 -8.466473 -10.550094 0.243230
635 1 2 0.0 -7.289664 -13.150619 0.099937
636 1 2 0.0 -6.617858 -12.390596 0.000000
637 1 1 0.0 -7.179056 -5.442183 0.264907
638 1 1 0.0 -6.602956 -8.122075 0.049969
639 1 1 0.0 -9.863358 -4.929868 0.193261
640 1 1 0.0 -9.255959 -7.592404 0.121615
641 1 2 0.0 -6.119366 -5.168850 0.214939
642 1 2 0.0 -10.290798 -7.848181 0.071646
643 1 2 0.0 -6.924656 -4.374797 0.028291
644 1 2 0.0 -9.530948 -5.997647 0.143292
645 1 2 0.0 -9.465306 -8.648399 0.171583
646 1 2 0.0 -8.783019 -5.230509 0.243230
647 1 2 0.0 -7.669100 -7.816330 0.099937
648 1 2 0.0 -6.931317 -7.046090 0.000000
649 1 1 0.0 -7.267517 -0.100042 0.264907
650 1 1 0.0 -6.766726 -2.774126 0.049969
651 1 1 0.0 -9.963758 0.372052 0.193261
652 1 1 0.0 -9.464386 -2.282389 0.121615
653 1 2 0.0 -6.186876 0.185812 0.214939
654 1 2 0.0 -10.536614 -2.556994 0.071646
655 1 2 0.0 -6.976695 0.970882 0.028291
656 1 2 0.0 -9.674250 -0.690813 0.143292
657 1 2 0.0 -9.727646 -3.343199 0.171583
658 1 2 0.0 -8.883716 0.089076 0.243230
659 1 2 0.0 -7.848753 -2.482040 0.099937
660 1 2 0.0 -7.067858 -1.701584 0.000000
661 1 1 0.0 -7.185479 5.242098 0.264907
662 1 1 0.0 -6.769699 2.573822 0.049969
663 1 1 0.0 -9.830353 5.673971 0.193261
664 1 1 0.0 -9.448817 3.027626 0.121615
665 1 2 0.0 -6.109233 5.540473 0.214939
666 1 2 0.0 -10.532476 2.734194 0.071646
667 1 2 0.0 -6.864803 6.316561 0.028291
668 1 2 0.0 -9.590411 4.616022 0.143292
669 1 2 0.0 -9.757410 1.962000 0.171583
670 1 2 0.0 -8.775998 5.408661 0.243230
671 1 2 0.0 -7.842366 2.852249 0.099937
672 1 2 0.0 -7.037784 3.642922 0.000000
673 1 1 0.0 -6.926887 10.584238 0.264907
674 1 1 0.0 -6.612094 7.921770 0.049969
675 1 1 0.0 -9.453250 10.975891 0.193261
676 1 1 0.0 -9.208115 8.337642 0.121615
677 1 2 0.0 -5.880690 10.895135 0.214939
678 1 2 0.0 -10.278082 8.025382 0.071646
679 1 2 0.0 -6.580624 11.662240 0.028291
680 1 2 0.0 -9.273271 9.922856 0.143292
681 1 2 0.0 -9.556770 7.267199 0.171583
682 1 2 0.0 -8.451899 10.728245 0.243230
683 1 2 0.0 -7.649473 8.186539 0.099937
684 1 2 0.0 -6.838900 8.987428 0.000000
685 1 1 0.0 -6.470606 15.926378 0.264907
686 1 1 0.0 -6.281834 13.269718 0.049969
687 1 1 0.0 -8.801177 16.277810 0.193261
688 1 1 0.0 -8.723665 13.647657 0.121615
689 1 2 0.0 -5.482408 16.249797 0.214939
690 1 2 0.0 -9.753869 13.316569 0.071646
691 1 2 0.0 -6.100126 17.007919 0.028291
692 1 2 0.0 -8.697348 15.229691 0.143292
693 1 2 0.0 -9.110516 12.572398 0.171583
694 1 2 0.0 -7.884781 16.047830 0.243230
695 1 2 0.0 -7.255213 13.520828 0.099937
696 1 2 0.0 -6.455621 14.331934 0.000000
697 1 1 0.0 -5.769928 21.268519 0.264907
698 1 1 0.0 -5.749243 18.617667 0.049969
699 1 1 0.0 -7.805526 21.579730 0.193261
700 1 1 0.0 -7.951037 18.957673 0.121615
701 1 2 0.0 -4.872944 21.604458 0.214939
702 1 2 0.0 -8.912355 18.607757 0.071646
703 1 2 0.0 -5.370876 22.353598 0.028291
704 1 2 0.0 -7.805566 20.536525 0.143292
705 1 2 0.0 -8.379499 17.877598 0.171583
706 1 2 0.0 -7.015960 21.367415 0.243230
707 1 2 0.0 -6.623725 18.855118 0.099937
708 1 2 0.0 -5.851826 19.676440 0.000000
709 1 1 0.0 -4.717173 26.610659 0.264907
710 1 1 0.0 -4.949430 23.965615 0.049969
711 1 1 0.0 -6.305589 26.881649 0.193261
712 1 1 0.0 -6.792596 24.267688 0.121615
713 1 2 0.0 -3.955865 26.959120 0.214939
714 1 2 0.0 -7.649528 23.898944 0.071646