39732
timestep 0 5.084700 5.084700 7.098580
Si -27.029418 -17.157378 0.264907
Si -24.430027 -19.450348 0.049969
Si -29.541519 -15.943335 0.193261
Si -26.844951 -18.147952 0.121615
O -26.384342 -17.238003 0.214939
O -27.356240 -17.959309 0.071646
O -27.577944 -16.382769 0.028291
O -28.435278 -16.855276 0.143292
O -25.979694 -18.858601 0.171583
O -28.455342 -16.511955 0.243230
O -25.480081 -18.862869 0.099937
O -25.591353 -18.497467 0.000000
Si -30.380274 -12.888022 0.264907
Si -28.467914 -15.145961 0.049969
Si -33.029041 -11.886328 0.193261
Si -31.052038 -14.051189 0.121615
O -29.560337 -12.890789 0.214939
O -31.782186 -13.953445 0.071646
O -30.641806 -12.092267 0.028291
O -32.185987 -12.774268 0.143292
O -30.577825 -14.785622 0.171583
O -31.914625 -12.366613 0.243230
O -29.558417 -14.638545 0.099937
O -29.348673 -14.214040 0.000000
Si -32.567804 -8.618665 0.264907
Si -31.158753 -10.841575 0.049969
Si -35.291792 -7.829321 0.193261
Si -33.850036 -9.954426 0.121615
O -31.626247 -8.543575 0.214939
O -34.729525 -9.947582 0.071646
O -32.612011 -7.801764 0.028291
O -34.650776 -8.693259 0.143292
O -33.646645 -10.712644 0.171583
O -34.167610 -8.221271 0.243230
O -32.273179 -10.414221 0.099937
O -31.838819 -9.930613 0.000000
Si -33.818514 -4.349309 0.264907
Si -32.835400 -6.537189 0.049969
Si -36.557907 -3.772315 0.193261
Si -35.573010 -5.857663 0.121615
O -32.792550 -4.196361 0.214939
O -36.557646 -5.941718 0.071646
O -33.681032 -3.511262 0.028291
O -36.094055 -4.612250 0.143292
O -35.584047 -6.639665 0.171583
O -35.445076 -4.075929 0.243230
O -33.953036 -6.189898 0.099937
O -33.346884 -5.647185 0.000000
Si -34.235232 -0.079952 0.264907
Si -33.649799 -2.232802 0.049969
Si -36.930035 0.284692 0.193261
Si -36.374048 -1.760900 0.121615
O -33.154323 0.150852 0.214939
O -37.430898 -1.935854 0.071646
O -33.934145 0.779241 0.028291
O -36.636746 -0.531242 0.143292
O -36.570296 -2.566686 0.171583
O -35.851454 0.069413 0.243230
O -34.748407 -1.965574 0.099937
O -34.003787 -1.363758 0.000000
Si -33.848775 4.189404 0.264907
Si -33.664586 2.071584 0.049969
Si -36.435578 4.341699 0.193261
Si -36.314211 2.335863 0.121615
O -32.738247 4.498066 0.214939
O -37.416197 2.070010 0.071646
O -33.389911 5.069743 0.028291
O -36.319244 3.549767 0.143292
O -36.682189 1.506293 0.171583
O -35.416741 4.214755 0.243230
O -34.720130 2.258750 0.099937
O -33.859103 2.919669 0.000000
Si -32.630617 8.458760 0.264907
Si -32.880839 6.375970 0.049969
Si -35.037867 8.398706 0.193261
Si -35.389133 6.432626 0.121615
O -31.513528 8.845280 0.214939
O -36.512470 6.075873 0.071646
O -32.007684 9.360245 0.028291
O -35.118224 7.630775 0.143292
O -35.927899 5.579272 0.171583
O -34.108795 8.360097 0.243230
O -33.866143 6.483073 0.099937
O -32.902261 7.203096 0.000000
Si -30.481207 12.728117 0.264907
Si -31.238512 10.680357 0.049969
Si -32.621002 12.455713 0.193261
Si -33.527269 10.529389 0.121615
O -29.379210 13.192493 0.214939
O -34.650228 10.081737 0.071646
O -29.670577 13.650748 0.028291
O -32.937179 11.711784 0.143292
O -34.250243 9.652251 0.171583
O -31.820115 12.505439 0.243230
O -32.120654 10.707397 0.099937
O -31.058287 11.486524 0.000000
Si -27.180508 16.997473 0.264907
Si -28.590026 14.984743 0.049969
Si -28.930682 16.512720 0.193261
Si -30.557863 14.626152 0.121615
O -26.113205 17.539707 0.214939
O -31.660782 14.087601 0.071646
O -26.123556 17.941250 0.028291
O -29.559969 15.792793 0.143292
O -31.502045 13.725230 0.171583
O -28.313867 16.650781 0.243230
O -29.324899 14.931721 0.099937
O -28.153404 15.769951 0.000000
Si -22.221278 21.266830 0.264907
Si -24.612689 19.289129 0.049969
Si -23.371263 20.569727 0.193261
Si -26.105679 18.722915 0.121615
O -21.198746 21.886921 0.214939
O -27.174639 18.093464 0.071646
O -20.755309 22.231753 0.028291
O -24.496768 19.873801 0.143292
O -27.362619 17.798208 0.171583
O -23.040745 20.796123 0.243230
O -25.130769 19.156044 0.099937
O -23.802303 20.053378 0.000000
Si -22.771105 -18.574000 0.264907
Si -20.526562 -21.008094 0.049969
Si -25.227281 -17.513764 0.193261
Si -22.872951 -19.879027 0.121615
O -22.092182 -18.567207 0.214939
O -23.425122 -19.802025 0.071646
O -23.196334 -17.710854 0.028291
O -24.249939 -18.483714 0.143292
O -22.165867 -20.692446 0.171583
O -24.174477 -18.025572 0.243230
O -21.535121 -20.481489 0.099937
O -21.536941 -20.006239 0.000000
Si -25.594055 -13.952139 0.264907
Si -23.919269 -16.358976 0.049969
Si -28.205486 -13.057139 0.193261
Si -26.457554 -15.391487 0.121615
O -24.751511 -13.884784 0.214939
O -27.215055 -15.385139 0.071646
O -25.773406 -13.072538 0.028291
O -27.448587 -14.008427 0.143292
O -26.088992 -16.223403 0.171583
O -27.113340 -13.500235 0.243230
O -24.982028 -15.894676 0.099937
O -24.698992 -15.373428 0.000000
Si -27.436954 -9.330277 0.264907
Si -26.180161 -11.709859 0.049969
Si -30.137785 -8.600515 0.193261
Si -28.841558 -10.903947 0.121615
O -26.481342 -9.202361 0.214939
O -29.738858 -10.968254 0.071646
O -27.430583 -8.434222 0.028291
O -29.550589 -9.533140 0.143292
O -28.707308 -11.754361 0.171583
O -29.027383 -8.974898 0.243230
O -27.276476 -11.307864 0.099937
O -26.794627 -10.740617 0.000000
Si -28.490623 -4.708415 0.264907
Si -27.588911 -7.060741 0.049969
Si -31.218997 -4.143890 0.193261
Si -30.309600 -6.416407 0.121615
O -27.457913 -4.519939 0.214939
O -31.304276 -6.551368 0.071646
O -28.329756 -3.795906 0.028291
O -30.781433 -5.057853 0.143292
O -30.360299 -7.285318 0.171583
O -30.112665 -4.449561 0.243230
O -28.696249 -6.721052 0.099937
O -28.063771 -6.107806 0.000000
Si -28.841689 -0.086554 0.264907
Si -28.273184 -2.411624 0.049969
Si -31.536780 0.312735 0.193261
Si -30.992116 -1.928867 0.121615
O -27.760833 0.162484 0.214939
O -32.052041 -2.134483 0.071646
O -28.542655 0.842410 0.028291
O -31.244247 -0.582567 0.143292
O -31.201766 -2.816275 0.171583
O -30.457906 0.075776 0.243230
O -29.368476 -2.134240 0.099937
O -28.616601 -1.474995 0.000000
Si -28.516116 4.535308 0.264907
Si -28.285608 2.237494 0.049969
Si -31.114533 4.769359 0.193261
Si -30.941133 2.558673 0.121615
O -27.412444 4.844907 0.214939
O -32.039453 2.282403 0.071646
O -28.084890 5.480726 0.028291
O -30.973477 3.892720 0.143292
O -31.297233 1.652768 0.171583
O -30.088592 4.601113 0.243230
O -29.344577 2.452573 0.099937
O -28.494839 3.157816 0.000000
Si -27.489871 9.157170 0.264907
Si -27.627090 6.886611 0.049969
Si -29.920943 9.225984 0.193261
Si -30.152930 7.046213 0.121615
O -26.386960 9.527330 0.214939
O -31.265593 6.699288 0.071646
O -26.922272 10.119042 0.028291
O -29.949234 8.368007 0.143292
O -30.653673 6.121810 0.171583
O -28.977416 9.126450 0.243230
O -28.622809 7.039385 0.099937
O -27.689589 7.790627 0.000000
Si -25.679087 13.779031 0.264907
Si -26.247176 11.535728 0.049969
Si -27.857037 13.682609 0.193261
Si -28.566548 11.533753 0.121615
O -24.599850 14.209753 0.214939
O -29.670956 11.116174 0.071646
O -24.956487 14.757359 0.028291
O -28.089213 12.843294 0.143292
O -29.222298 10.590853 0.171583
O -27.033048 13.651787 0.243230
O -27.147566 11.626197 0.099937
O -26.137754 12.423438 0.000000
Si -22.898392 18.400893 0.264907
Si -24.021870 16.184846 0.049969
Si -24.705651 18.139233 0.193261
Si -26.036498 16.021294 0.121615
O -21.865153 18.892175 0.214939
O -27.111097 15.533059 0.071646
O -21.973020 19.395675 0.028291
O -25.209088 17.318581 0.143292
O -26.877536 15.059896 0.171583
O -24.054286 18.177124 0.243230
O -24.784664 16.213009 0.099937
O -23.693088 17.056249 0.000000
Si -18.720457 23.022755 0.264907
Si -20.680037 20.833963 0.049969
Si -19.958128 22.595858 0.193261
Si -22.243063 20.508834 0.121615
O -17.750170 23.574598 0.214939
O -23.269617 19.949945 0.071646
O -17.457685 24.033991 0.028291
O -20.891132 21.793868 0.143292
O -23.345779 19.528939 0.171583
O -19.574460 22.702461 0.243230
O -21.239892 20.799822 0.099937
O -20.031328 21.689060 0.000000
Si -18.512792 -19.671171 0.264907
Si -16.623096 -22.213049 0.049969
Si -20.913044 -18.734894 0.193261
Si -18.900951 -21.224638 0.121615
O -17.800021 -19.593515 0.214939
O -19.494003 -21.235120 0.071646
O -18.814723 -18.738696 0.028291
O -20.064600 -19.749731 0.143292
O -18.352041 -22.118247 0.171583
O -19.893612 -19.201394 0.243230
O -17.590161 -21.736784 0.099937
O -17.482528 -21.174217 0.000000
Si -20.807836 -14.776295 0.264907
Si -19.370623 -17.297273 0.049969
Si -23.381931 -13.967536 0.193261
Si -21.863071 -16.433336 0.121615
O -19.942685 -14.652270 0.214939
O -22.647924 -16.498579 0.071646
O -20.905006 -13.831197 0.028291
O -22.711187 -14.967915 0.143292
O -21.600158 -17.341268 0.171583
O -22.312055 -14.380866 0.243230
O -20.405639 -16.868850 0.099937
O -20.049311 -16.270939 0.000000
Si -22.306104 -9.881419 0.264907
Si -21.201570 -12.381498 0.049969
Si -24.983779 -9.200177 0.193261
Si -23.833081 -11.642035 0.121615
O -21.336438 -9.711025 0.214939
O -24.748191 -11.762039 0.071646
O -22.249155 -8.923698 0.028291
O -24.450401 -10.186100 0.143292
O -23.767971 -12.564288 0.171583
O -23.887155 -9.560338 0.243230
O -22.279773 -12.000915 0.099937
O -21.750434 -11.367661 0.000000
Si -23.162731 -4.986543 0.264907
Si -22.342422 -7.465722 0.049969
Si -25.880088 -4.432819 0.193261
Si -25.046190 -6.850733 0.121615
O -22.123276 -4.769780 0.214939
O -26.050907 -7.025498 0.071646
O -22.978481 -4.016199 0.028291
O -25.468812 -5.404284 0.143292
O -25.136551 -7.787309 0.171583
O -24.780253 -4.739809 0.243230
O -23.439461 -7.132980 0.099937
O -22.780657 -6.464384 0.000000
Si -23.448146 -0.091667 0.264907
Si -22.896570 -2.549947 0.049969
Si -26.143525 0.334540 0.193261
Si -25.610183 -2.059432 0.121615
O -22.367344 0.171466 0.214939
O -26.673184 -2.288958 0.071646
O -23.151165 0.891299 0.028291
O -25.851748 -0.622469 0.143292
O -25.833236 -3.010329 0.171583
O -25.064359 0.080719 0.243230
O -23.988545 -2.265046 0.099937
O -23.229415 -1.561106 0.000000
Si -23.183457 4.803210 0.264907
Si -22.906631 2.365829 0.049969
Si -25.793488 5.101898 0.193261
Si -25.568054 2.731870 0.121615
O -22.086641 5.112711 0.214939
O -26.662708 2.447583 0.071646
O -22.779868 5.798798 0.028291
O -25.627711 4.159347 0.143292
O -25.912278 1.766651 0.171583
O -24.760444 4.901247 0.243230
O -23.969025 2.602889 0.099937
O -23.130576 3.342172 0.000000
Si -22.349125 9.698086 0.264907
Si -22.373341 7.281604 0.049969
Si -24.804020 9.869257 0.193261
Si -24.916726 7.523171 0.121615
O -21.260393 10.053956 0.214939
O -26.018715 7.184124 0.071646
O -21.836860 10.706297 0.028291
O -24.780243 8.941162 0.143292
O -25.379447 6.543630 0.171583
O -23.846036 9.721776 0.243230
O -23.379475 7.470824 0.099937
O -22.476916 8.245449 0.000000
Si -20.876967 14.592962 0.264907
Si -21.255841 12.197380 0.049969
Si -23.093072 14.636615 0.193261
Si -23.605827 12.314473 0.121615
O -19.820489 14.995201 0.214939
O -24.691684 11.920664 0.071646
O -20.242397 15.613796 0.028291
O -23.241246 13.722978 0.143292
O -24.194352 11.320610 0.171583
O -22.245982 14.542304 0.243230
O -22.174477 12.338758 0.099937
O -21.217220 13.148727 0.000000
Si -18.616276 19.487838 0.264907
Si -19.453713 17.113156 0.049969
Si -20.480620 19.403974 0.193261
Si -21.515133 17.105774 0.121615
O -17.617100 19.936447 0.214939
O -22.561411 16.657205 0.071646
O -17.822484 20.521295 0.028291
O -20.858208 18.504793 0.143292
O -22.253027 16.097589 0.171583
O -19.794704 19.362832 0.243230
O -20.244430 17.206693 0.099937
O -19.232773 18.052004 0.000000
Si -15.219636 24.382714 0.264907
Si -16.747385 22.028931 0.049969
Si -16.544993 24.171332 0.193261
Si -18.380446 21.897076 0.121615
O -14.301594 24.877692 0.214939
O -19.364594 21.393745 0.071646
O -14.160062 25.428794 0.028291
O -17.285495 23.286609 0.143292
O -19.328938 20.874569 0.171583
O -16.108175 24.183361 0.243230
O -17.349014 22.074628 0.099937
O -16.260353 22.955282 0.000000
Si -14.254479 -20.500245 0.264907
Si -12.719630 -23.120438 0.049969
Si -16.598806 -19.671882 0.193261
Si -14.928952 -22.254814 0.121615
O -13.507861 -20.362779 0.214939
O -15.562885 -22.337573 0.071646
O -14.433112 -19.513798 0.028291
O -15.879260 -20.719866 0.143292
O -14.538214 -23.211322 0.171583
O -15.612747 -20.098796 0.243230
O -13.645201 -22.689140 0.099937
O -13.428116 -22.055608 0.000000
Si -16.021618 -15.399066 0.264907
Si -14.821978 -18.003856 0.049969
Si -18.558376 -14.666094 0.193261
Si -17.268587 -17.230958 0.121615
O -15.133860 -15.227535 0.214939
O -18.080792 -17.355128 0.071646
O -16.036606 -14.403307 0.028291
O -17.973788 -15.703161 0.143292
O -17.111325 -18.198266 0.171583
O -17.510770 -15.052974 0.243230
O -15.829249 -17.607926 0.099937
O -15.399631 -16.948228 0.000000
Si -17.175253 -10.297887 0.264907
Si -16.222978 -12.887274 0.049969
Si -19.829772 -9.660305 0.193261
Si -18.824603 -12.207102 0.121615
O -16.191533 -10.092291 0.214939
O -19.757525 -12.372683 0.071646
O -17.067727 -9.292815 0.028291
O -19.350213 -10.686456 0.143292
O -18.828634 -13.185210 0.171583
O -18.746928 -10.007152 0.243230
O -17.283070 -12.526712 0.099937
O -16.706242 -11.840848 0.000000
Si -17.834839 -5.196709 0.264907
Si -17.095934 -7.770692 0.049969
Si -20.541178 -4.654517 0.193261
Si -19.782779 -7.183246 0.121615
O -16.788640 -4.957047 0.214939
O -20.797537 -7.390238 0.071646
O -17.627206 -4.182324 0.028291
O -20.156191 -5.669750 0.143292
O -19.912802 -8.172154 0.171583
O -19.447842 -4.961330 0.243230
O -18.182674 -7.445498 0.099937
O -17.497544 -6.733468 0.000000
Si -18.054603 -0.095530 0.264907
Si -17.519955 -2.654110 0.049969
Si -20.750269 0.351271 0.193261
Si -20.228251 -2.159390 0.121615
O -16.973855 0.178198 0.214939
O -21.294328 -2.407792 0.071646
O -17.759675 0.928167 0.028291
O -20.459249 -0.653045 0.143292
O -20.464706 -3.159098 0.171583
O -19.670811 0.084492 0.243230
O -18.608615 -2.364284 0.099937
O -17.842229 -1.626088 0.000000
Si -17.850798 5.005649 0.264907
Si -17.527654 2.462472 0.049969
Si -20.472443 5.357059 0.193261
Si -20.194975 2.864466 0.121615
O -16.760839 5.313442 0.214939
O -21.285964 2.574653 0.071646
O -17.474846 6.038658 0.028291
O -20.281944 4.363660 0.143292
O -20.527322 1.853958 0.171583
O -19.432295 5.130313 0.243230
O -18.593472 2.716930 0.099937
O -17.766312 3.481292 0.000000
Si -17.208379 10.106827 0.264907
Si -17.119592 7.579054 0.049969
Si -19.687096 10.362848 0.193261
Si -19.680522 7.888322 0.121615
O -16.133825 10.448686 0.214939
O -20.771837 7.557098 0.071646
O -16.751448 11.149149 0.028291
O -19.611252 9.380365 0.143292
O -20.105221 6.867014 0.171583
O -18.714657 10.176135 0.243230
O -18.136141 7.798144 0.099937
O -17.264244 8.588672 0.000000
Si -16.074846 15.208006 0.264907
Si -16.264505 12.695636 0.049969
Si -18.329107 15.368636 0.193261
Si -18.645107 12.912178 0.121615
O -15.041129 15.583930 0.214939
O -19.712413 12.539544 0.071646
O -15.528307 16.259640 0.028291
O -18.393280 14.397071 0.143292
O -19.166407 11.880070 0.171583
O -17.458915 15.221957 0.243230
O -17.201389 12.879358 0.099937
O -16.296687 13.696052 0.000000
Si -14.334160 20.309185 0.264907
Si -14.885556 17.812218 0.049969
Si -16.255588 20.374424 0.193261
Si -16.993768 17.936034 0.121615
O -13.369048 20.719174 0.214939
O -18.011726 17.521989 0.071646
O -13.671948 21.370131 0.028291
O -16.507327 19.413776 0.143292
O -17.628517 16.893126 0.171583
O -15.535123 20.267779 0.243230
O -15.704195 17.960571 0.099937
O -14.772457 18.803432 0.000000
Si -11.718815 25.410363 0.264907
Si -12.814733 22.928800 0.049969
Si -13.131858 25.380213 0.193261
Si -14.517830 22.959890 0.121615
O -10.853017 25.854418 0.214939
O -15.459572 22.504434 0.071646
O -10.862438 26.480623 0.028291
O -13.679858 24.430481 0.143292
O -15.312098 21.906182 0.171583
O -12.641890 25.313601 0.243230
O -13.458137 23.041785 0.099937
O -12.489378 23.910812 0.000000
Si -9.996167 -21.092859 0.264907
Si -8.816164 -23.764372 0.049969
Si -12.284568 -20.363987 0.193261
Si -10.956952 -23.011958 0.121615
O -9.215701 -20.903395 0.214939
O -11.631766 -23.156657 0.071646
O -10.051502 -20.065469 0.028291
O -11.693921 -21.434334 0.143292
O -10.724388 -24.017143 0.171583
O -11.331882 -20.753924 0.243230
O -9.700242 -23.375611 0.099937
O -9.373704 -22.683845 0.000000
Si -11.235399 -15.844217 0.264907
Si -10.273333 -18.505287 0.049969
Si -13.734821 -15.182083 0.193261
Si -12.674103 -17.817183 0.121615
O -10.325034 -15.631814 0.214939
O -13.513661 -17.991514 0.071646
O -11.168206 -14.810500 0.028291
O -13.236388 -16.244641 0.143292
O -12.622491 -18.830050 0.171583
O -12.709485 -15.543632 0.243230
O -11.252860 -18.140663 0.099937
O -10.749950 -17.430985 0.000000
Si -12.044403 -10.595575 0.264907
Si -11.244386 -13.246201 0.049969
Si -14.675766 -10.000179 0.193261
Si -13.816126 -12.622407 0.121615
O -11.046629 -10.360233 0.214939
O -14.766858 -12.826370 0.071646
O -11.886299 -9.555531 0.028291
O -14.250026 -11.054949 0.143292
O -13.889297 -13.642957 0.171583
O -13.606700 -10.333339 0.243230
O -12.286367 -12.905714 0.099937
O -11.662050 -12.178125 0.000000
Si -12.506947 -5.346933 0.264907
Si -11.849445 -7.987116 0.049969
Si -15.202268 -4.818274 0.193261
Si -14.519369 -7.427632 0.121615
O -11.454003 -5.088652 0.214939
O -15.544168 -7.661226 0.071646
O -12.275931 -4.300562 0.028291
O -14.843569 -5.865256 0.143292
O -14.689054 -8.455865 0.171583
O -14.115431 -5.123047 0.243230
O -12.925887 -7.670766 0.099937
O -12.214431 -6.925266 0.000000
Si -12.661060 -0.098292 0.264907
Si -12.143341 -2.728031 0.049969
Si -15.357014 0.363630 0.193261
Si -14.846319 -2.232856 0.121615
O -11.580365 0.182929 0.214939
O -15.915471 -2.496082 0.071646
O -12.368185 0.954407 0.028291
O -15.066750 -0.675564 0.143292
O -15.096176 -3.268772 0.171583
O -14.277264 0.087246 0.243230
O -13.228684 -2.435817 0.099937
O -12.455043 -1.672406 0.000000
Si -12.518139 5.150350 0.264907
Si -12.148677 2.531055 0.049969
Si -15.151398 5.545534 0.193261
Si -14.821896 2.961920 0.121615
O -11.435036 5.454509 0.214939
O -15.909220 2.669062 0.071646
O -12.169825 6.209376 0.028291
O -14.936178 4.514129 0.143292
O -15.142366 1.918321 0.171583
O -14.104147 5.297538 0.243230
O -13.217919 2.799132 0.099937
O -12.402048 3.580454 0.000000
Si -12.067633 10.398992 0.264907
Si -11.865843 7.790140 0.049969
Si -14.570173 10.727438 0.193261
Si -14.444319 8.156695 0.121615
O -11.007258 10.726090 0.214939
O -15.524959 7.834205 0.071646
O -11.666036 11.464345 0.028291
O -14.442262 9.703821 0.143292
O -14.830995 7.105414 0.171583
O -13.583278 10.507831 0.243230
O -12.892807 8.034080 0.099937
O -12.051572 8.833313 0.000000
Si -11.272726 15.647634 0.264907
Si -11.273170 13.049225 0.049969
Si -13.565142 15.909342 0.193261
Si -13.684386 13.351471 0.121615
O -10.261769 15.997671 0.214939
O -14.733141 12.999349 0.071646
O -10.814216 16.719314 0.028291
O -13.545314 14.893514 0.143292
O -14.138461 12.292507 0.171583
O -12.671848 15.718123 0.243230
O -12.228301 13.269029 0.099937
O -11.376154 14.086173 0.000000
Si -10.052044 20.896276 0.264907
Si -10.317400 18.308311 0.049969
Si -12.030557 21.091247 0.193261
Si -12.472403 18.546247 0.121615
O -9.120996 21.269252 0.214939
O -13.462040 18.164493 0.071646
O -9.521412 21.974283 0.028291
O -12.156447 20.083207 0.143292
O -13.004008 17.479600 0.171583
O -11.275541 20.928415 0.243230
O -11.163960 18.503978 0.099937
O -10.312142 19.339033 0.000000
Si -8.217994 26.144917 0.264907
Si -8.882082 23.567396 0.049969
Si -9.718724 26.273151 0.193261
Si -10.655213 23.741022 0.121615
O -7.404441 26.540833 0.214939
O -11.554550 23.329637 0.071646
O -7.564814 27.229252 0.028291
O -10.074221 25.272899 0.143292
O -11.295258 22.666693 0.171583
O -9.175605 26.138708 0.243230
O -9.567259 23.738926 0.099937
O -8.718403 24.591892 0.000000
Si -5.737854 -21.468604 0.264907
Si -4.912698 -24.165920 0.049969
Si -7.970330 -20.835627 0.193261
Si -6.984952 -23.522451 0.121615
O -4.923541 -21.232835 0.214939
O -7.700648 -23.721744 0.071646
O -5.669891 -20.411835 0.028291
O -7.508582 -21.918150 0.143292
O -6.910561 -24.563996 0.171583
O -7.051017 -21.189263 0.243230
O -5.755282 -23.819198 0.099937
O -5.319291 -23.079608 0.000000
Si -6.449180 -16.126463 0.264907
Si -5.724687 -18.817971 0.049969
Si -8.911266 -15.533707 0.193261
Si -8.079620 -18.212435 0.121615
O -5.516208 -15.878173 0.214939
O -8.946530 -18.430556 0.071646
O -6.299806 -15.066156 0.028291
O -8.498989 -16.611316 0.143292
O -8.133658 -19.258797 0.171583
O -7.908200 -15.869679 0.243230
O -6.676471 -18.484909 0.099937
O -6.100269 -17.735102 0.000000
Si -6.913553 -10.784323 0.264907
Si -6.265795 -13.470023 0.049969
Si -9.521759 -10.231788 0.193261
Si -8.807648 -12.902420 0.121615
O -5.901724 -10.523512 0.214939
O -9.776191 -13.139369 0.071646
O -6.704871 -9.720477 0.028291
O -9.149838 -11.304481 0.143292
O -8.949959 -13.953598 0.171583
O -8.466473 -10.550094 0.243230
O -7.289664 -13.150619 0.099937
O -6.617858 -12.390596 0.000000
Si -7.179056 -5.442183 0.264907
Si -6.602956 -8.122075 0.049969
Si -9.863358 -4.929868 0.193261
Si -9.255959 -7.592404 0.121615
O -6.119366 -5.168850 0.214939
O -10.290798 -7.848181 0.071646
O -6.924656 -4.374797 0.028291
O -9.530948 -5.997647 0.143292
O -9.465306 -8.648399 0.171583
O -8.783019 -5.230509 0.243230
O -7.669100 -7.816330 0.099937
O -6.931317 -7.046090 0.000000
Si -7.267517 -0.100042 0.264907
Si -6.766726 -2.774126 0.049969
Si -9.963758 0.372052 0.193261
Si -9.464386 -2.282389 0.121615
O -6.186876 0.185812 0.214939
O -10.536614 -2.556994 0.071646
O -6.976695 0.970882 0.028291
O -9.674250 -0.690813 0.143292
O -9.727646 -3.343199 0.171583
O -8.883716 0.089076 0.243230
O -7.848753 -2.482040 0.099937
O -7.067858 -1.701584 0.000000
Si -7.185479 5.242098 0.264907
Si -6.769699 2.573822 0.049969
Si -9.830353 5.673971 0.193261
Si -9.448817 3.027626 0.121615
O -6.109233 5.540473 0.214939
O -10.532476 2.734194 0.071646
O -6.864803 6.316561 0.028291
O -9.590411 4.616022 0.143292
O -9.757410 1.962000 0.171583
O -8.775998 5.408661 0.243230
O -7.842366 2.852249 0.099937
O -7.037784 3.642922 0.000000
Si -6.926887 10.584238 0.264907
Si -6.612094 7.921770 0.049969
Si -9.453250 10.975891 0.193261
Si -9.208115 8.337642 0.121615
O -5.880690 10.895135 0.214939
O -10.278082 8.025382 0.071646
O -6.580624 11.662240 0.028291
O -9.273271 9.922856 0.143292
O -9.556770 7.267199 0.171583
O -8.451899 10.728245 0.243230
O -7.649473 8.186539 0.099937
O -6.838900 8.987428 0.000000
Si -6.470606 15.926378 0.264907
Si -6.281834 13.269718 0.049969
Si -8.801177 16.277810 0.193261
Si -8.723665 13.647657 0.121615
O -5.482408 16.249797 0.214939
O -9.753869 13.316569 0.071646
O -6.100126 17.007919 0.028291
O -8.697348 15.229691 0.143292
O -9.110516 12.572398 0.171583
O -7.884781 16.047830 0.243230
O -7.255213 13.520828 0.099937
O -6.455621 14.331934 0.000000
Si -5.769928 21.268519 0.264907
Si -5.749243 18.617667 0.049969
Si -7.805526 21.579730 0.193261
Si -7.951037 18.957673 0.121615
O -4.872944 21.604458 0.214939
O -8.912355 18.607757 0.071646
O -5.370876 22.353598 0.028291
O -7.805566 20.536525 0.143292
O -8.379499 17.877598 0.171583
O -7.015960 21.367415 0.243230
O -6.623725 18.855118 0.099937
O -5.851826 19.676440 0.000000
Si -4.717173 26.610659 0.264907
Si -4.949430 23.965615 0.049969
Si -6.305589 26.881649 0.193261
Si -6.792596 24.267688 0.121615
O -3.955865 26.959120 0.214939
O -7.649528 23.898944 0.071646
O -4.267190 27.699277 0.028291
O -6.468584 25.843360 0.143292
O -7.278418 23.182797 0.171583
O -5.709321 26.687000 0.243230
O -5.676381 24.189407 0.099937
O -4.947428 25.020946 0.000000
Si -1.479541 -21.638780 0.264907
Si -1.009232 -24.337081 0.049969
Si -3.656092 -21.101589 0.193261
Si -3.012952 -23.802166 0.121615
O -0.631380 -21.360873 0.214939
O -3.769529 -24.050742 0.071646
O -1.288280 -20.563271 0.028291
O -3.323242 -22.186410 0.143292
O -3.096735 -24.868971 0.171583
O -2.770151 -21.418220 0.243230
O -1.810322 -24.033353 0.099937
O -1.264879 -23.254771 0.000000
Si -1.662961 -16.254294 0.264907
Si -1.176042 -18.951255 0.049969
Si -4.087712 -15.731991 0.193261
Si -3.485136 -18.429007 0.121615
O -0.707382 -15.973922 0.214939
O -4.379399 -18.686170 0.071646
O -1.431406 -15.177932 0.028291
O -3.761589 -16.814624 0.143292
O -3.644824 -19.497905 0.171583
O -3.106915 -16.041155 0.243230
O -2.100081 -18.651104 0.099937
O -1.450588 -17.869703 0.000000
Si -1.782702 -10.869808 0.264907
Si -1.287203 -13.565428 0.049969
Si -4.367752 -10.362394 0.193261
Si -3.799170 -13.055848 0.121615
O -0.756820 -10.586971 0.214939
O -4.785525 -13.321599 0.071646
O -1.523443 -9.792593 0.028291
O -4.049650 -11.442838 0.143292
O -4.010622 -14.126839 0.171583
O -3.326245 -10.664091 0.243230
O -2.292961 -13.268854 0.099937
O -1.573666 -12.484635 0.000000
Si -1.851164 -5.485322 0.264907
Si -1.356468 -8.179602 0.049969
Si -4.524448 -4.992797 0.193261
Si -3.992549 -7.682689 0.121615
O -0.784729 -5.200019 0.214939
O -5.037429 -7.957028 0.071646
O -1.573381 -4.407254 0.028291
O -4.218327 -6.071053 0.143292
O -4.241557 -8.755773 0.171583
O -3.450608 -5.287026 0.243230
O -2.412312 -7.886605 0.099937
O -1.648204 -7.099567 0.000000
Si -1.873974 -0.100835 0.264907
Si -1.390111 -2.793775 0.049969
Si -4.570503 0.376801 0.193261
Si -4.082454 -2.309530 0.121615
O -0.793387 0.186932 0.214939
O -5.157758 -2.592457 0.071646
O -1.585205 0.978085 0.028291
O -4.281751 -0.699267 0.143292
O -4.359117 -3.384707 0.171583
O -3.490169 0.090038 0.243230
O -2.468822 -2.504356 0.099937
O -1.680672 -1.714499 0.000000
Si -1.852820 5.283651 0.264907
Si -1.390722 2.592052 0.049969
Si -4.509309 5.746398 0.193261
Si -4.075738 3.063629 0.121615
O -0.783430 5.573883 0.214939
O -5.155732 2.772115 0.071646
O -1.559781 6.363424 0.028291
O -4.244645 4.672518 0.143292
O -4.372454 1.986359 0.171583
O -3.447849 5.467103 0.243230
O -2.466813 2.877893 0.099937
O -1.673521 3.670570 0.000000
Si -1.786141 10.668137 0.264907
Si -1.358345 7.977878 0.049969
Si -4.336326 11.115996 0.193261
Si -3.971911 8.436788 0.121615
O -0.754122 10.960835 0.214939
O -5.031204 8.136686 0.071646
O -1.495212 11.748763 0.028291
O -4.104281 10.044304 0.143292
O -4.282544 7.357425 0.171583
O -3.320520 10.844167 0.243230
O -2.406139 8.260143 0.099937
O -1.626228 9.055638 0.000000
Si -1.668486 16.052623 0.264907
Si -1.290498 13.363705 0.049969
Si -4.037212 16.485593 0.193261
Si -3.762944 13.809947 0.121615
O -0.703048 16.347786 0.214939
O -4.774598 13.501257 0.071646
O -1.386036 17.134101 0.028291
O -3.849381 15.416089 0.143292
O -4.082570 12.728491 0.171583
O -3.097715 16.221232 0.243230
O -2.282124 13.642392 0.099937
O -1.535087 14.440706 0.000000
Si -1.487812 21.437109 0.264907
Si -1.181086 18.749532 0.049969
Si -3.580494 21.855190 0.193261
Si -3.429672 19.183107 0.121615
O -0.624892 21.734737 0.214939
O -4.362670 18.865829 0.071646
O -1.220340 22.519440 0.028291
O -3.454685 20.787875 0.143292
O -3.754990 18.099558 0.171583
O -2.756379 21.598296 0.243230
O -2.083490 19.024641 0.099937
O -1.391511 19.825774 0.000000
Si -1.216352 26.821595 0.264907
Si -1.016778 24.135358 0.049969
Si -2.892454 27.224788 0.193261
Si -2.929980 24.556266 0.121615
O -0.507288 27.121688 0.214939
O -3.744506 24.230400 0.071646
O -0.969567 27.904779 0.028291
O -2.862947 26.159660 0.143292
O -3.261577 23.470624 0.171583
O -2.243036 26.975361 0.243230
O -1.785504 24.406891 0.099937
O -1.176453 25.210842 0.000000
Si 2.778772 -21.608245 0.264907
Si 2.894234 -24.282730 0.049969
Si 0.658146 -21.169627 0.193261
Si 0.959048 -23.859223 0.121615
O 3.660780 -21.291142 0.214939
O 0.161589 -24.153302 0.071646
O 3.093330 -20.524094 0.028291
O 0.862097 -22.246911 0.143292
O 0.717092 -24.940943 0.171583
O 1.510714 -21.447403 0.243230
O 2.134638 -24.024212 0.099937
O 2.789534 -23.214328 0.000000
Si 3.123258 -16.231357 0.264907
Si 3.372603 -18.908931 0.049969
Si 0.735843 -15.782716 0.193261
Si 1.109348 -18.473184 0.121615
O 4.101444 -15.921776 0.214939
O 0.187733 -18.765854 0.071646
O 3.436994 -15.149015 0.028291
O 0.975810 -16.860477 0.143292
O 0.844009 -19.554333 0.171583
O 1.694370 -16.063012 0.243230
O 2.476308 -18.644010 0.099937
O 3.199093 -17.838625 0.000000
Si 3.348148 -10.854469 0.264907
Si 3.691388 -13.535133 0.049969
Si 0.786254 -10.395806 0.193261
Si 1.209307 -13.087145 0.121615
O 4.388085 -10.552410 0.214939
O 0.205142 -13.378407 0.071646
O 3.657986 -9.773936 0.028291
O 1.050538 -11.474043 0.143292
O 0.928715 -14.167723 0.171583
O 1.813982 -10.678621 0.243230
O 2.703742 -13.263807 0.099937
O 3.470526 -12.462922 0.000000
Si 3.476728 -5.477581 0.264907
Si 3.890021 -8.161334 0.049969
Si 0.814462 -5.008895 0.193261
Si 1.270861 -7.701105 0.121615
O 4.549907 -5.183044 0.214939
O 0.215941 -7.990959 0.071646
O 3.777894 -4.398858 0.028291
O 1.094295 -6.087608 0.143292
O 0.982191 -8.781112 0.171583
O 1.881804 -5.294230 0.243230
O 2.844475 -7.883605 0.099937
O 3.634910 -7.087220 0.000000
Si 3.519569 -0.100693 0.264907
Si 3.986503 -2.787536 0.049969
Si 0.822752 0.378016 0.193261
Si 1.299479 -2.315066 0.121615
O 4.600103 0.186322 0.214939
O 0.221099 -2.603512 0.071646
O 3.806285 0.976221 0.028291
O 1.110748 -0.701174 0.143292
O 1.009413 -3.394502 0.171583
O 1.903378 0.090161 0.243230
O 2.911108 -2.503403 0.099937
O 3.706514 -1.711517 0.000000
Si 3.479839 5.276195 0.264907
Si 3.988255 2.586263 0.049969
Si 0.811736 5.764926 0.193261
Si 1.297341 3.070973 0.121615
O 4.542373 5.555688 0.214939
O 0.221012 2.783936 0.071646
O 3.745240 6.351300 0.028291
O 1.101122 4.685260 0.143292
O 1.012502 1.992108 0.171583
O 1.880299 5.474552 0.243230
O 2.908739 2.876799 0.099937
O 3.690743 3.664186 0.000000
Si 3.354605 10.653083 0.264907
Si 3.895404 7.960062 0.049969
Si 0.780597 11.151837 0.193261
Si 1.264292 8.457012 0.121615
O 4.372445 10.925054 0.214939
O 0.215674 8.171383 0.071646
O 3.590200 11.726379 0.028291
O 1.064710 10.071694 0.143292
O 0.991682 7.378718 0.171583
O 1.810860 10.858943 0.243230
O 2.837195 8.257001 0.099937
O 3.586444 9.039889 0.000000
Si 3.133634 16.029970 0.264907
Si 3.700837 13.333860 0.049969
Si 0.726753 16.538748 0.193261
Si 1.197776 13.843052 0.121615
O 4.076313 16.294420 0.214939
O 0.204674 13.558831 0.071646
O 3.328054 17.101457 0.028291
O 0.998585 15.458128 0.143292
O 0.945375 12.765328 0.171583
O 1.689352 16.243334 0.243230
O 2.690964 13.637203 0.099937
O 3.385446 14.415591 0.000000
Si 2.794304 21.406858 0.264907
Si 3.387070 18.707659 0.049969